<?xml version="1.0" encoding="UTF-8"?>

<!-- generated on 2025-05-26 16:45:34 by Eclipse SUMO GUI Version 1.23.1
<sumoConfiguration xmlns:xsi="http://www.w3.org/2001/XMLSchema-instance" xsi:noNamespaceSchemaLocation="http://sumo.dlr.de/xsd/sumoConfiguration.xsd">

    <input>
        <net-file value="test.net.xml"/>
        <route-files value="trips.trips.xml"/>
        <additional-files value="map.poly.xml"/>
    </input>

    <output>
        <tripinfo-output value="tripinfo_adaptive.xml"/>
    </output>

    <time>
        <begin value="0"/>
        <end value="10000"/>
    </time>

    <traci_server>
        <remote-port value="65280"/>
    </traci_server>

</sumoConfiguration>
-->

<tripinfos xmlns:xsi="http://www.w3.org/2001/XMLSchema-instance" xsi:noNamespaceSchemaLocation="http://sumo.dlr.de/xsd/tripinfo_file.xsd">
    <tripinfo id="2" depart="2.00" departLane="306275221#1_0" departPos="5.10" departSpeed="0.00" departDelay="0.00" arrival="13.00" arrivalLane="-763092075#1_0" arrivalPos="25.48" arrivalSpeed="11.62" duration="11.00" routeLength="71.73" waitingTime="0.00" waitingCount="0" stopTime="0.00" timeLoss="4.45" rerouteNo="0" devices="tripinfo_2 routing_2" vType="DEFAULT_VEHTYPE" speedFactor="1.01" vaporized=""/>
    <tripinfo id="7" depart="7.00" departLane="1064294858#2_0" departPos="5.10" departSpeed="0.00" departDelay="0.00" arrival="22.00" arrivalLane="1064294858#3_0" arrivalPos="212.14" arrivalSpeed="24.35" duration="15.00" routeLength="226.83" waitingTime="0.00" waitingCount="0" stopTime="0.00" timeLoss="5.52" rerouteNo="0" devices="tripinfo_7 routing_7" vType="DEFAULT_VEHTYPE" speedFactor="0.89" vaporized=""/>
    <tripinfo id="12" depart="12.00" departLane="518974814#1_0" departPos="5.10" departSpeed="0.00" departDelay="0.00" arrival="35.00" arrivalLane="1060223615#0_0" arrivalPos="85.63" arrivalSpeed="28.79" duration="23.00" routeLength="449.21" waitingTime="0.00" waitingCount="0" stopTime="0.00" timeLoss="7.32" rerouteNo="1" devices="tripinfo_12 routing_12" vType="DEFAULT_VEHTYPE" speedFactor="1.05" vaporized=""/>
    <tripinfo id="15" depart="16.00" departLane="518974807#2_0" departPos="5.10" departSpeed="0.00" departDelay="1.00" arrival="40.00" arrivalLane="413955654#1_0" arrivalPos="84.54" arrivalSpeed="21.23" duration="24.00" routeLength="263.56" waitingTime="0.00" waitingCount="0" stopTime="0.00" timeLoss="12.36" rerouteNo="1" devices="tripinfo_15 routing_15" vType="DEFAULT_VEHTYPE" speedFactor="0.93" vaporized=""/>
    <tripinfo id="35" depart="35.00" departLane="763092075#1_0" departPos="5.10" departSpeed="0.00" departDelay="0.00" arrival="48.00" arrivalLane="50823682_0" arrivalPos="76.00" arrivalSpeed="13.29" duration="13.00" routeLength="126.14" waitingTime="0.00" waitingCount="0" stopTime="0.00" timeLoss="4.06" rerouteNo="1" devices="tripinfo_35 routing_35" vType="DEFAULT_VEHTYPE" speedFactor="1.02" vaporized=""/>
    <tripinfo id="13" depart="13.00" departLane="518974807#2_0" departPos="5.10" departSpeed="0.00" departDelay="0.00" arrival="51.00" arrivalLane="131473131_0" arrivalPos="125.85" arrivalSpeed="15.12" duration="38.00" routeLength="509.51" waitingTime="0.00" waitingCount="0" stopTime="0.00" timeLoss="12.65" rerouteNo="1" devices="tripinfo_13 routing_13" vType="DEFAULT_VEHTYPE" speedFactor="1.12" vaporized=""/>
    <tripinfo id="34" depart="34.00" departLane="413949757#2_0" departPos="5.10" departSpeed="0.00" departDelay="0.00" arrival="51.00" arrivalLane="413949757#2_0" arrivalPos="283.23" arrivalSpeed="27.35" duration="17.00" routeLength="278.13" waitingTime="0.00" waitingCount="0" stopTime="0.00" timeLoss="6.44" rerouteNo="1" devices="tripinfo_34 routing_34" vType="DEFAULT_VEHTYPE" speedFactor="0.99" vaporized=""/>
    <tripinfo id="36" depart="37.00" departLane="413949757#2_0" departPos="5.10" departSpeed="0.00" departDelay="1.00" arrival="54.00" arrivalLane="413949757#2_0" arrivalPos="283.23" arrivalSpeed="26.44" duration="17.00" routeLength="278.13" waitingTime="0.00" waitingCount="0" stopTime="0.00" timeLoss="6.33" rerouteNo="1" devices="tripinfo_36 routing_36" vType="DEFAULT_VEHTYPE" speedFactor="0.97" vaporized=""/>
    <tripinfo id="17" depart="17.00" departLane="518974807#3_0" departPos="5.10" departSpeed="0.00" departDelay="0.00" arrival="57.00" arrivalLane="131473132#0_0" arrivalPos="92.33" arrivalSpeed="12.67" duration="40.00" routeLength="396.16" waitingTime="0.00" waitingCount="0" stopTime="0.00" timeLoss="13.46" rerouteNo="1" devices="tripinfo_17 routing_17" vType="DEFAULT_VEHTYPE" speedFactor="0.94" vaporized=""/>
    <tripinfo id="57" depart="57.00" departLane="763092075#1_0" departPos="5.10" departSpeed="0.00" departDelay="0.00" arrival="62.00" arrivalLane="763092075#1_0" arrivalPos="25.48" arrivalSpeed="9.08" duration="5.00" routeLength="20.38" waitingTime="0.00" waitingCount="0" stopTime="0.00" timeLoss="3.39" rerouteNo="1" devices="tripinfo_57 routing_57" vType="DEFAULT_VEHTYPE" speedFactor="1.14" vaporized=""/>
    <tripinfo id="45" depart="45.00" departLane="306275221#1_0" departPos="5.10" departSpeed="0.00" departDelay="0.00" arrival="64.00" arrivalLane="1068234512#2_0" arrivalPos="73.79" arrivalSpeed="19.07" duration="19.00" routeLength="160.00" waitingTime="0.00" waitingCount="0" stopTime="0.00" timeLoss="9.08" rerouteNo="1" devices="tripinfo_45 routing_45" vType="DEFAULT_VEHTYPE" speedFactor="1.09" vaporized=""/>
    <tripinfo id="52" depart="52.00" departLane="518974807#0_0" departPos="5.10" departSpeed="0.00" departDelay="0.00" arrival="67.00" arrivalLane="518974807#1_0" arrivalPos="92.62" arrivalSpeed="27.67" duration="15.00" routeLength="221.46" waitingTime="0.00" waitingCount="0" stopTime="0.00" timeLoss="6.91" rerouteNo="0" devices="tripinfo_52 routing_52" vType="DEFAULT_VEHTYPE" speedFactor="1.02" vaporized=""/>
    <tripinfo id="42" depart="42.00" departLane="306275221#1_0" departPos="5.10" departSpeed="0.00" departDelay="0.00" arrival="70.00" arrivalLane="306275221#3_0" arrivalPos="236.74" arrivalSpeed="14.32" duration="28.00" routeLength="298.73" waitingTime="0.00" waitingCount="0" stopTime="0.00" timeLoss="6.53" rerouteNo="1" devices="tripinfo_42 routing_42" vType="DEFAULT_VEHTYPE" speedFactor="1.09" vaporized=""/>
    <tripinfo id="43" depart="50.00" departLane="131473132#0_0" departPos="5.10" departSpeed="0.00" departDelay="7.00" arrival="77.00" arrivalLane="131473123#1_0" arrivalPos="37.01" arrivalSpeed="12.86" duration="27.00" routeLength="234.77" waitingTime="0.00" waitingCount="0" stopTime="0.00" timeLoss="9.18" rerouteNo="1" devices="tripinfo_43 routing_43" vType="DEFAULT_VEHTYPE" speedFactor="1.04" vaporized=""/>
    <tripinfo id="62" depart="62.00" departLane="1064294858#3_0" departPos="5.10" departSpeed="0.00" departDelay="0.00" arrival="77.00" arrivalLane="1064294858#3_0" arrivalPos="212.14" arrivalSpeed="26.08" duration="15.00" routeLength="207.04" waitingTime="0.00" waitingCount="0" stopTime="0.00" timeLoss="7.55" rerouteNo="1" devices="tripinfo_62 routing_62" vType="DEFAULT_VEHTYPE" speedFactor="1.02" vaporized=""/>
    <tripinfo id="58" depart="58.00" departLane="1060223615#0_0" departPos="5.10" departSpeed="0.00" departDelay="0.00" arrival="83.00" arrivalLane="1064294862#1_1" arrivalPos="308.17" arrivalSpeed="27.54" duration="25.00" routeLength="441.32" waitingTime="0.00" waitingCount="0" stopTime="0.00" timeLoss="8.55" rerouteNo="1" devices="tripinfo_58 routing_58" vType="DEFAULT_VEHTYPE" speedFactor="1.02" vaporized=""/>
    <tripinfo id="71" depart="71.00" departLane="1064294858#3_0" departPos="5.10" departSpeed="0.00" departDelay="0.00" arrival="86.00" arrivalLane="1064294858#3_0" arrivalPos="212.14" arrivalSpeed="26.02" duration="15.00" routeLength="207.04" waitingTime="0.00" waitingCount="0" stopTime="0.00" timeLoss="6.73" rerouteNo="1" devices="tripinfo_71 routing_71" vType="DEFAULT_VEHTYPE" speedFactor="0.97" vaporized=""/>
    <tripinfo id="66" depart="66.00" departLane="306275221#1_0" departPos="5.10" departSpeed="0.00" departDelay="0.00" arrival="87.00" arrivalLane="1068234512#2_0" arrivalPos="73.79" arrivalSpeed="20.28" duration="21.00" routeLength="160.00" waitingTime="0.00" waitingCount="0" stopTime="0.00" timeLoss="8.87" rerouteNo="1" devices="tripinfo_66 routing_66" vType="DEFAULT_VEHTYPE" speedFactor="0.91" vaporized=""/>
    <tripinfo id="53" depart="55.00" departLane="518974807#0_0" departPos="5.10" departSpeed="0.00" departDelay="2.00" arrival="91.00" arrivalLane="413955654#1_0" arrivalPos="84.54" arrivalSpeed="19.73" duration="36.00" routeLength="490.42" waitingTime="0.00" waitingCount="0" stopTime="0.00" timeLoss="18.94" rerouteNo="1" devices="tripinfo_53 routing_53" vType="DEFAULT_VEHTYPE" speedFactor="1.10" vaporized=""/>
    <tripinfo id="72" depart="73.00" departLane="518974820#1_0" departPos="5.10" departSpeed="0.00" departDelay="1.00" arrival="91.00" arrivalLane="518974820#1_0" arrivalPos="296.14" arrivalSpeed="25.36" duration="18.00" routeLength="291.04" waitingTime="0.00" waitingCount="0" stopTime="0.00" timeLoss="6.67" rerouteNo="1" devices="tripinfo_72 routing_72" vType="DEFAULT_VEHTYPE" speedFactor="0.94" vaporized=""/>
    <tripinfo id="73" depart="76.00" departLane="518974820#1_0" departPos="5.10" departSpeed="0.00" departDelay="3.00" arrival="93.00" arrivalLane="518974820#1_0" arrivalPos="296.14" arrivalSpeed="28.64" duration="17.00" routeLength="291.04" waitingTime="0.00" waitingCount="0" stopTime="0.00" timeLoss="6.50" rerouteNo="1" devices="tripinfo_73 routing_73" vType="DEFAULT_VEHTYPE" speedFactor="1.06" vaporized=""/>
    <tripinfo id="75" depart="79.00" departLane="518974820#1_0" departPos="5.10" departSpeed="0.00" departDelay="4.00" arrival="96.00" arrivalLane="518974820#1_0" arrivalPos="296.14" arrivalSpeed="26.77" duration="17.00" routeLength="291.04" waitingTime="0.00" waitingCount="0" stopTime="0.00" timeLoss="6.10" rerouteNo="1" devices="tripinfo_75 routing_75" vType="DEFAULT_VEHTYPE" speedFactor="0.98" vaporized=""/>
    <tripinfo id="76" depart="82.00" departLane="518974820#1_0" departPos="5.10" departSpeed="0.00" departDelay="6.00" arrival="99.00" arrivalLane="518974820#1_0" arrivalPos="296.14" arrivalSpeed="27.41" duration="17.00" routeLength="291.04" waitingTime="0.00" waitingCount="0" stopTime="0.00" timeLoss="6.64" rerouteNo="1" devices="tripinfo_76 routing_76" vType="DEFAULT_VEHTYPE" speedFactor="1.03" vaporized=""/>
    <tripinfo id="63" depart="63.00" departLane="518974814#1_0" departPos="5.10" departSpeed="0.00" departDelay="0.00" arrival="103.00" arrivalLane="1064294862#1_1" arrivalPos="308.17" arrivalSpeed="26.93" duration="40.00" routeLength="810.00" waitingTime="0.00" waitingCount="0" stopTime="0.00" timeLoss="10.00" rerouteNo="1" devices="tripinfo_63 routing_63" vType="DEFAULT_VEHTYPE" speedFactor="0.99" vaporized=""/>
    <tripinfo id="74" depart="74.00" departLane="131473132#0_0" departPos="5.10" departSpeed="0.00" departDelay="0.00" arrival="103.00" arrivalLane="440965024_0" arrivalPos="82.08" arrivalSpeed="12.33" duration="29.00" routeLength="280.80" waitingTime="0.00" waitingCount="0" stopTime="0.00" timeLoss="7.11" rerouteNo="1" devices="tripinfo_74 routing_74" vType="DEFAULT_VEHTYPE" speedFactor="0.96" vaporized=""/>
    <tripinfo id="113" depart="113.00" departLane="413955654#1_0" departPos="5.10" departSpeed="0.00" departDelay="0.00" arrival="122.00" arrivalLane="413955654#1_0" arrivalPos="84.54" arrivalSpeed="16.77" duration="9.00" routeLength="79.44" waitingTime="0.00" waitingCount="0" stopTime="0.00" timeLoss="6.02" rerouteNo="1" devices="tripinfo_113 routing_113" vType="DEFAULT_VEHTYPE" speedFactor="1.01" vaporized=""/>
    <tripinfo id="91" depart="91.00" departLane="131473132#0_0" departPos="5.10" departSpeed="0.00" departDelay="0.00" arrival="123.00" arrivalLane="131473118_0" arrivalPos="96.69" arrivalSpeed="12.03" duration="32.00" routeLength="270.86" waitingTime="0.00" waitingCount="0" stopTime="0.00" timeLoss="8.93" rerouteNo="1" devices="tripinfo_91 routing_91" vType="DEFAULT_VEHTYPE" speedFactor="0.89" vaporized=""/>
    <tripinfo id="100" depart="100.00" departLane="131473132#0_0" departPos="5.10" departSpeed="0.00" departDelay="0.00" arrival="127.00" arrivalLane="440965024_0" arrivalPos="82.08" arrivalSpeed="14.71" duration="27.00" routeLength="280.80" waitingTime="0.00" waitingCount="0" stopTime="0.00" timeLoss="6.09" rerouteNo="1" devices="tripinfo_100 routing_100" vType="DEFAULT_VEHTYPE" speedFactor="1.06" vaporized=""/>
    <tripinfo id="114" depart="114.00" departLane="413949757#1_0" departPos="5.10" departSpeed="0.00" departDelay="0.00" arrival="128.00" arrivalLane="-763092075#1_0" arrivalPos="25.48" arrivalSpeed="14.09" duration="14.00" routeLength="97.70" waitingTime="0.00" waitingCount="0" stopTime="0.00" timeLoss="5.57" rerouteNo="1" devices="tripinfo_114 routing_114" vType="DEFAULT_VEHTYPE" speedFactor="1.10" vaporized=""/>
    <tripinfo id="111" depart="111.00" departLane="518974807#0_0" departPos="5.10" departSpeed="0.00" departDelay="0.00" arrival="132.00" arrivalLane="518974807#2_0" arrivalPos="119.60" arrivalSpeed="24.01" duration="21.00" routeLength="341.36" waitingTime="0.00" waitingCount="0" stopTime="0.00" timeLoss="5.95" rerouteNo="1" devices="tripinfo_111 routing_111" vType="DEFAULT_VEHTYPE" speedFactor="0.87" vaporized=""/>
    <tripinfo id="123" depart="123.00" departLane="518974814#1_0" departPos="5.10" departSpeed="0.00" departDelay="0.00" arrival="140.00" arrivalLane="518974814#1_0" arrivalPos="295.80" arrivalSpeed="27.78" duration="17.00" routeLength="290.70" waitingTime="0.00" waitingCount="0" stopTime="0.00" timeLoss="6.28" rerouteNo="1" devices="tripinfo_123 routing_123" vType="DEFAULT_VEHTYPE" speedFactor="1.02" vaporized=""/>
    <tripinfo id="140" depart="140.00" departLane="1064294862#1_0" departPos="5.10" departSpeed="0.00" departDelay="0.00" arrival="158.00" arrivalLane="1064294862#2_0" arrivalPos="7.20" arrivalSpeed="30.07" duration="18.00" routeLength="310.57" waitingTime="0.00" waitingCount="0" stopTime="0.00" timeLoss="7.20" rerouteNo="0" devices="tripinfo_140 routing_140" vType="DEFAULT_VEHTYPE" speedFactor="1.11" vaporized=""/>
    <tripinfo id="155" depart="155.00" departLane="1064294862#1_0" departPos="5.10" departSpeed="0.00" departDelay="0.00" arrival="173.00" arrivalLane="1064294862#1_0" arrivalPos="308.17" arrivalSpeed="30.16" duration="18.00" routeLength="303.07" waitingTime="0.00" waitingCount="0" stopTime="0.00" timeLoss="8.00" rerouteNo="1" devices="tripinfo_155 routing_155" vType="DEFAULT_VEHTYPE" speedFactor="1.12" vaporized=""/>
    <tripinfo id="154" depart="154.00" departLane="518974807#2_0" departPos="5.10" departSpeed="0.00" departDelay="0.00" arrival="177.00" arrivalLane="413955654#1_0" arrivalPos="84.54" arrivalSpeed="19.74" duration="23.00" routeLength="263.56" waitingTime="0.00" waitingCount="0" stopTime="0.00" timeLoss="13.08" rerouteNo="1" devices="tripinfo_154 routing_154" vType="DEFAULT_VEHTYPE" speedFactor="1.06" vaporized=""/>
    <tripinfo id="175" depart="177.00" departLane="518974814#2_0" departPos="5.10" departSpeed="0.00" departDelay="2.00" arrival="207.00" arrivalLane="1064294862#1_1" arrivalPos="308.17" arrivalSpeed="24.90" duration="30.00" routeLength="514.10" waitingTime="0.00" waitingCount="0" stopTime="0.00" timeLoss="9.67" rerouteNo="1" devices="tripinfo_175 routing_175" vType="DEFAULT_VEHTYPE" speedFactor="0.92" vaporized=""/>
    <tripinfo id="176" depart="176.00" departLane="518974807#1_0" departPos="5.10" departSpeed="0.00" departDelay="0.00" arrival="207.00" arrivalLane="1068234505#0_0" arrivalPos="89.16" arrivalSpeed="28.58" duration="31.00" routeLength="452.04" waitingTime="0.00" waitingCount="0" stopTime="0.00" timeLoss="14.65" rerouteNo="1" devices="tripinfo_176 routing_176" vType="DEFAULT_VEHTYPE" speedFactor="1.09" vaporized=""/>
    <tripinfo id="191" depart="192.00" departLane="518974814#1_0" departPos="5.10" departSpeed="0.00" departDelay="1.00" arrival="210.00" arrivalLane="518974814#1_0" arrivalPos="295.80" arrivalSpeed="25.06" duration="18.00" routeLength="290.70" waitingTime="0.00" waitingCount="0" stopTime="0.00" timeLoss="5.92" rerouteNo="1" devices="tripinfo_191 routing_191" vType="DEFAULT_VEHTYPE" speedFactor="0.93" vaporized=""/>
    <tripinfo id="184" depart="184.00" departLane="518974814#0_0" departPos="5.10" departSpeed="0.00" departDelay="0.00" arrival="213.00" arrivalLane="518974814#2_1" arrivalPos="64.62" arrivalSpeed="5.20" duration="29.00" routeLength="370.99" waitingTime="3.00" waitingCount="1" stopTime="0.00" timeLoss="14.73" rerouteNo="1" devices="tripinfo_184 routing_184" vType="DEFAULT_VEHTYPE" speedFactor="0.94" vaporized=""/>
    <tripinfo id="182" depart="184.00" departLane="518974807#0_0" departPos="5.10" departSpeed="0.00" departDelay="2.00" arrival="221.00" arrivalLane="1068234505#0_0" arrivalPos="89.16" arrivalSpeed="26.85" duration="37.00" routeLength="585.98" waitingTime="0.00" waitingCount="0" stopTime="0.00" timeLoss="15.67" rerouteNo="1" devices="tripinfo_182 routing_182" vType="DEFAULT_VEHTYPE" speedFactor="1.03" vaporized=""/>
    <tripinfo id="203" depart="203.00" departLane="518974814#1_0" departPos="5.10" departSpeed="0.00" departDelay="0.00" arrival="221.00" arrivalLane="518974814#1_0" arrivalPos="295.80" arrivalSpeed="29.74" duration="18.00" routeLength="290.70" waitingTime="0.00" waitingCount="0" stopTime="0.00" timeLoss="8.41" rerouteNo="1" devices="tripinfo_203 routing_203" vType="DEFAULT_VEHTYPE" speedFactor="1.11" vaporized=""/>
    <tripinfo id="207" depart="207.00" departLane="413949757#2_0" departPos="5.10" departSpeed="0.00" departDelay="0.00" arrival="228.00" arrivalLane="413949757#5_0" arrivalPos="85.20" arrivalSpeed="26.44" duration="21.00" routeLength="380.55" waitingTime="0.00" waitingCount="0" stopTime="0.00" timeLoss="6.68" rerouteNo="1" devices="tripinfo_207 routing_207" vType="DEFAULT_VEHTYPE" speedFactor="0.97" vaporized=""/>
    <tripinfo id="218" depart="218.00" departLane="518974814#1_0" departPos="5.10" departSpeed="0.00" departDelay="0.00" arrival="236.00" arrivalLane="518974814#1_0" arrivalPos="295.80" arrivalSpeed="28.65" duration="18.00" routeLength="290.70" waitingTime="0.00" waitingCount="0" stopTime="0.00" timeLoss="7.28" rerouteNo="1" devices="tripinfo_218 routing_218" vType="DEFAULT_VEHTYPE" speedFactor="1.07" vaporized=""/>
    <tripinfo id="230" depart="230.00" departLane="1064294858#3_0" departPos="5.10" departSpeed="0.00" departDelay="0.00" arrival="245.00" arrivalLane="1064294858#3_0" arrivalPos="212.14" arrivalSpeed="28.21" duration="15.00" routeLength="207.04" waitingTime="0.00" waitingCount="0" stopTime="0.00" timeLoss="7.44" rerouteNo="1" devices="tripinfo_230 routing_230" vType="DEFAULT_VEHTYPE" speedFactor="1.04" vaporized=""/>
    <tripinfo id="228" depart="228.00" departLane="1064294862#1_0" departPos="5.10" departSpeed="0.00" departDelay="0.00" arrival="246.00" arrivalLane="1064294862#1_0" arrivalPos="308.17" arrivalSpeed="30.13" duration="18.00" routeLength="303.07" waitingTime="0.00" waitingCount="0" stopTime="0.00" timeLoss="7.05" rerouteNo="1" devices="tripinfo_228 routing_228" vType="DEFAULT_VEHTYPE" speedFactor="1.09" vaporized=""/>
    <tripinfo id="239" depart="239.00" departLane="518974807#1_0" departPos="5.10" departSpeed="0.00" departDelay="0.00" arrival="267.00" arrivalLane="1064294858#3_1" arrivalPos="212.14" arrivalSpeed="30.68" duration="28.00" routeLength="608.63" waitingTime="0.00" waitingCount="0" stopTime="0.00" timeLoss="8.48" rerouteNo="1" devices="tripinfo_239 routing_239" vType="DEFAULT_VEHTYPE" speedFactor="1.13" vaporized=""/>
    <tripinfo id="264" depart="264.00" departLane="306275221#1_0" departPos="5.10" departSpeed="0.00" departDelay="0.00" arrival="283.00" arrivalLane="1068234512#2_0" arrivalPos="73.79" arrivalSpeed="18.50" duration="19.00" routeLength="160.00" waitingTime="0.00" waitingCount="0" stopTime="0.00" timeLoss="9.51" rerouteNo="1" devices="tripinfo_264 routing_264" vType="DEFAULT_VEHTYPE" speedFactor="1.13" vaporized=""/>
    <tripinfo id="268" depart="268.00" departLane="1064294862#1_0" departPos="5.10" departSpeed="0.00" departDelay="0.00" arrival="286.00" arrivalLane="1064294862#1_0" arrivalPos="308.17" arrivalSpeed="26.39" duration="18.00" routeLength="303.07" waitingTime="0.00" waitingCount="0" stopTime="0.00" timeLoss="6.55" rerouteNo="1" devices="tripinfo_268 routing_268" vType="DEFAULT_VEHTYPE" speedFactor="0.96" vaporized=""/>
    <tripinfo id="291" depart="291.00" departLane="413949757#2_0" departPos="5.10" departSpeed="0.00" departDelay="0.00" arrival="309.00" arrivalLane="413949757#2_0" arrivalPos="283.23" arrivalSpeed="26.88" duration="18.00" routeLength="278.13" waitingTime="0.00" waitingCount="0" stopTime="0.00" timeLoss="7.11" rerouteNo="1" devices="tripinfo_291 routing_291" vType="DEFAULT_VEHTYPE" speedFactor="0.97" vaporized=""/>
    <tripinfo id="310" depart="310.00" departLane="413949757#1_0" departPos="5.10" departSpeed="0.00" departDelay="0.00" arrival="320.00" arrivalLane="306275221#1_0" arrivalPos="39.82" arrivalSpeed="12.16" duration="10.00" routeLength="60.69" waitingTime="0.00" waitingCount="0" stopTime="0.00" timeLoss="4.27" rerouteNo="1" devices="tripinfo_310 routing_310" vType="DEFAULT_VEHTYPE" speedFactor="0.90" vaporized=""/>
    <tripinfo id="302" depart="302.00" departLane="1064294862#1_0" departPos="5.10" departSpeed="0.00" departDelay="0.00" arrival="321.00" arrivalLane="1064294862#1_0" arrivalPos="308.17" arrivalSpeed="26.95" duration="19.00" routeLength="303.07" waitingTime="0.00" waitingCount="0" stopTime="0.00" timeLoss="7.19" rerouteNo="1" devices="tripinfo_302 routing_302" vType="DEFAULT_VEHTYPE" speedFactor="0.98" vaporized=""/>
    <tripinfo id="304" depart="305.00" departLane="1064294862#1_0" departPos="5.10" departSpeed="0.00" departDelay="1.00" arrival="323.00" arrivalLane="1064294862#1_0" arrivalPos="308.17" arrivalSpeed="26.76" duration="18.00" routeLength="303.07" waitingTime="0.00" waitingCount="0" stopTime="0.00" timeLoss="6.19" rerouteNo="1" devices="tripinfo_304 routing_304" vType="DEFAULT_VEHTYPE" speedFactor="0.98" vaporized=""/>
    <tripinfo id="287" depart="287.00" departLane="1068234512#1_0" departPos="5.10" departSpeed="0.00" departDelay="0.00" arrival="324.00" arrivalLane="306275221#3_0" arrivalPos="236.74" arrivalSpeed="11.68" duration="37.00" routeLength="332.05" waitingTime="0.00" waitingCount="0" stopTime="0.00" timeLoss="10.04" rerouteNo="1" devices="tripinfo_287 routing_287" vType="DEFAULT_VEHTYPE" speedFactor="0.89" vaporized=""/>
    <tripinfo id="341" depart="341.00" departLane="763092075#1_0" departPos="5.10" departSpeed="0.00" departDelay="0.00" arrival="361.00" arrivalLane="1068234512#2_0" arrivalPos="73.79" arrivalSpeed="16.73" duration="20.00" routeLength="138.80" waitingTime="0.00" waitingCount="0" stopTime="0.00" timeLoss="10.13" rerouteNo="1" devices="tripinfo_341 routing_341" vType="DEFAULT_VEHTYPE" speedFactor="0.86" vaporized=""/>
    <tripinfo id="356" depart="356.00" departLane="413955654#1_0" departPos="5.10" departSpeed="0.00" departDelay="0.00" arrival="365.00" arrivalLane="413955654#1_0" arrivalPos="84.54" arrivalSpeed="16.66" duration="9.00" routeLength="79.44" waitingTime="0.00" waitingCount="0" stopTime="0.00" timeLoss="5.81" rerouteNo="1" devices="tripinfo_356 routing_356" vType="DEFAULT_VEHTYPE" speedFactor="0.96" vaporized=""/>
    <tripinfo id="22" depart="22.00" departLane="1060223615#0_0" departPos="5.10" departSpeed="0.00" departDelay="0.00" arrival="370.00" arrivalLane="131473131_0" arrivalPos="125.85" arrivalSpeed="12.72" duration="348.00" routeLength="378.72" waitingTime="301.00" waitingCount="1" stopTime="0.00" timeLoss="308.69" rerouteNo="1" devices="tripinfo_22 routing_22" vType="DEFAULT_VEHTYPE" speedFactor="0.97" vaporized=""/>
    <tripinfo id="23" depart="23.00" departLane="518974814#1_0" departPos="5.10" departSpeed="0.00" departDelay="0.00" arrival="374.00" arrivalLane="413949757#2_0" arrivalPos="283.23" arrivalSpeed="24.02" duration="351.00" routeLength="799.10" waitingTime="301.00" waitingCount="1" stopTime="0.00" timeLoss="315.55" rerouteNo="1" devices="tripinfo_23 routing_23" vType="DEFAULT_VEHTYPE" speedFactor="0.89" vaporized=""/>
    <tripinfo id="60" depart="60.00" departLane="518974807#3_0" departPos="5.10" departSpeed="0.00" departDelay="0.00" arrival="376.00" arrivalLane="-131473132#0_0" arrivalPos="92.27" arrivalSpeed="6.00" duration="316.00" routeLength="246.05" waitingTime="287.00" waitingCount="1" stopTime="0.00" timeLoss="303.49" rerouteNo="1" devices="tripinfo_60 routing_60" vType="DEFAULT_VEHTYPE" speedFactor="1.08" vaporized=""/>
    <tripinfo id="362" depart="362.00" departLane="1064294862#1_0" departPos="5.10" departSpeed="0.00" departDelay="0.00" arrival="379.00" arrivalLane="1064294862#1_0" arrivalPos="308.17" arrivalSpeed="32.72" duration="17.00" routeLength="303.07" waitingTime="0.00" waitingCount="0" stopTime="0.00" timeLoss="7.58" rerouteNo="1" devices="tripinfo_362 routing_362" vType="DEFAULT_VEHTYPE" speedFactor="1.20" vaporized=""/>
    <tripinfo id="18" depart="18.00" departLane="668037880#0_0" departPos="5.10" departSpeed="0.00" departDelay="0.00" arrival="382.00" arrivalLane="306275221#3_0" arrivalPos="236.74" arrivalSpeed="12.48" duration="364.00" routeLength="767.12" waitingTime="301.00" waitingCount="1" stopTime="0.00" timeLoss="318.56" rerouteNo="1" devices="tripinfo_18 routing_18" vType="DEFAULT_VEHTYPE" speedFactor="0.94" vaporized=""/>
    <tripinfo id="384" depart="384.00" departLane="518974807#0_0" departPos="5.10" departSpeed="0.00" departDelay="0.00" arrival="405.00" arrivalLane="518974807#3_1" arrivalPos="35.06" arrivalSpeed="30.25" duration="21.00" routeLength="382.74" waitingTime="0.00" waitingCount="0" stopTime="0.00" timeLoss="8.11" rerouteNo="1" devices="tripinfo_384 routing_384" vType="DEFAULT_VEHTYPE" speedFactor="1.10" vaporized=""/>
    <tripinfo id="414" depart="414.00" departLane="1064294862#1_0" departPos="5.10" departSpeed="0.00" departDelay="0.00" arrival="433.00" arrivalLane="1064294862#1_0" arrivalPos="308.17" arrivalSpeed="27.26" duration="19.00" routeLength="303.07" waitingTime="0.00" waitingCount="0" stopTime="0.00" timeLoss="7.34" rerouteNo="1" devices="tripinfo_414 routing_414" vType="DEFAULT_VEHTYPE" speedFactor="1.00" vaporized=""/>
    <tripinfo id="421" depart="421.00" departLane="413949757#2_0" departPos="5.10" departSpeed="0.00" departDelay="0.00" arrival="438.00" arrivalLane="413949757#2_0" arrivalPos="283.23" arrivalSpeed="28.52" duration="17.00" routeLength="278.13" waitingTime="0.00" waitingCount="0" stopTime="0.00" timeLoss="7.29" rerouteNo="1" devices="tripinfo_421 routing_421" vType="DEFAULT_VEHTYPE" speedFactor="1.05" vaporized=""/>
    <tripinfo id="426" depart="426.00" departLane="413949757#2_0" departPos="5.10" departSpeed="0.00" departDelay="0.00" arrival="446.00" arrivalLane="413949757#5_0" arrivalPos="85.20" arrivalSpeed="28.96" duration="20.00" routeLength="380.55" waitingTime="0.00" waitingCount="0" stopTime="0.00" timeLoss="6.96" rerouteNo="1" devices="tripinfo_426 routing_426" vType="DEFAULT_VEHTYPE" speedFactor="1.05" vaporized=""/>
    <tripinfo id="443" depart="443.00" departLane="518974807#1_0" departPos="5.10" departSpeed="0.00" departDelay="0.00" arrival="458.00" arrivalLane="518974807#2_1" arrivalPos="119.60" arrivalSpeed="28.91" duration="15.00" routeLength="207.42" waitingTime="0.00" waitingCount="0" stopTime="0.00" timeLoss="8.17" rerouteNo="0" devices="tripinfo_443 routing_443" vType="DEFAULT_VEHTYPE" speedFactor="1.24" vaporized=""/>
    <tripinfo id="446" depart="446.00" departLane="518974807#1_0" departPos="5.10" departSpeed="0.00" departDelay="0.00" arrival="458.00" arrivalLane="518974807#1_1" arrivalPos="92.62" arrivalSpeed="14.93" duration="12.00" routeLength="87.52" waitingTime="0.00" waitingCount="0" stopTime="0.00" timeLoss="8.75" rerouteNo="1" devices="tripinfo_446 routing_446" vType="DEFAULT_VEHTYPE" speedFactor="1.02" vaporized=""/>
    <tripinfo id="459" depart="459.00" departLane="1064294862#1_0" departPos="5.10" departSpeed="0.00" departDelay="0.00" arrival="479.00" arrivalLane="1064294862#1_0" arrivalPos="308.17" arrivalSpeed="20.89" duration="20.00" routeLength="303.07" waitingTime="0.00" waitingCount="0" stopTime="0.00" timeLoss="5.60" rerouteNo="1" devices="tripinfo_459 routing_459" vType="DEFAULT_VEHTYPE" speedFactor="0.77" vaporized=""/>
    <tripinfo id="455" depart="455.00" departLane="763092075#1_0" departPos="5.10" departSpeed="0.00" departDelay="0.00" arrival="485.00" arrivalLane="306275221#3_0" arrivalPos="236.74" arrivalSpeed="11.75" duration="30.00" routeLength="285.21" waitingTime="0.00" waitingCount="0" stopTime="0.00" timeLoss="5.56" rerouteNo="1" devices="tripinfo_455 routing_455" vType="DEFAULT_VEHTYPE" speedFactor="0.89" vaporized=""/>
    <tripinfo id="496" depart="496.00" departLane="306275221#1_0" departPos="5.10" departSpeed="0.00" departDelay="0.00" arrival="523.00" arrivalLane="306275221#3_0" arrivalPos="236.74" arrivalSpeed="14.72" duration="27.00" routeLength="298.73" waitingTime="0.00" waitingCount="0" stopTime="0.00" timeLoss="5.90" rerouteNo="1" devices="tripinfo_496 routing_496" vType="DEFAULT_VEHTYPE" speedFactor="1.11" vaporized=""/>
    <tripinfo id="501" depart="501.00" departLane="413949757#2_0" departPos="5.10" departSpeed="0.00" departDelay="0.00" arrival="523.00" arrivalLane="413949757#5_0" arrivalPos="85.20" arrivalSpeed="24.32" duration="22.00" routeLength="380.55" waitingTime="0.00" waitingCount="0" stopTime="0.00" timeLoss="6.31" rerouteNo="1" devices="tripinfo_501 routing_501" vType="DEFAULT_VEHTYPE" speedFactor="0.92" vaporized=""/>