<?xml version="1.0" encoding="UTF-8"?>

<!-- generated on 2025-05-26 13:26:05 by Eclipse SUMO GUI Version 1.23.1
<sumoConfiguration xmlns:xsi="http://www.w3.org/2001/XMLSchema-instance" xsi:noNamespaceSchemaLocation="http://sumo.dlr.de/xsd/sumoConfiguration.xsd">

    <input>
        <net-file value="osm.net.xml.gz"/>
        <route-files value="bsdroute.rou.xml"/>
        <additional-files value="osm.poly.xml.gz"/>
    </input>

    <output>
        <summary-output value="summary.xml"/>
        <tripinfo-output value="tripinfo.xml"/>
    </output>

    <processing>
        <ignore-route-errors value="true"/>
        <time-to-teleport value="-1"/>
        <waiting-time-memory value="1000"/>
        <tls.actuated.jam-threshold value="30"/>
    </processing>

    <routing>
        <device.rerouting.adaptation-steps value="18"/>
        <device.rerouting.adaptation-interval value="10"/>
    </routing>

    <report>
        <verbose value="true"/>
        <duration-log.statistics value="true"/>
        <no-step-log value="true"/>
    </report>

    <traci_server>
        <remote-port value="50159"/>
    </traci_server>

    <gui_only>
        <gui-settings-file value="osm.view.xml"/>
    </gui_only>

</sumoConfiguration>
-->

<tripinfos xmlns:xsi="http://www.w3.org/2001/XMLSchema-instance" xsi:noNamespaceSchemaLocation="http://sumo.dlr.de/xsd/tripinfo_file.xsd">
    <tripinfo id="flow_emergency_ew.0" depart="0.00" departLane="749662140#0_1" departPos="7.10" departSpeed="16.88" departDelay="0.00" arrival="10.00" arrivalLane="978400303#1_1" arrivalPos="131.20" arrivalSpeed="27.80" duration="10.00" routeLength="246.76" waitingTime="0.00" waitingCount="0" stopTime="0.00" timeLoss="0.57" rerouteNo="0" devices="tripinfo_flow_emergency_ew.0" vType="emergency" speedFactor="1.03" vaporized=""/>
    <tripinfo id="flow_emergency_en.0" depart="0.00" departLane="749662140#0_3" departPos="0.00" departSpeed="18.66" departDelay="0.00" arrival="12.00" arrivalLane="749988360#2_2" arrivalPos="63.94" arrivalSpeed="29.87" duration="12.00" routeLength="198.44" waitingTime="0.00" waitingCount="0" stopTime="0.00" timeLoss="3.52" rerouteNo="0" devices="tripinfo_flow_emergency_en.0" vType="emergency" speedFactor="1.09" vaporized=""/>
    <tripinfo id="flow_passenger_ew.0" depart="0.00" departLane="749662140#0_0" departPos="0.00" departSpeed="17.16" departDelay="0.00" arrival="14.00" arrivalLane="978400303#1_0" arrivalPos="131.20" arrivalSpeed="18.81" duration="14.00" routeLength="253.86" waitingTime="0.00" waitingCount="0" stopTime="0.00" timeLoss="0.54" rerouteNo="0" devices="tripinfo_flow_passenger_ew.0" vType="passenger" speedFactor="1.01" vaporized=""/>
    <tripinfo id="flow_emergency_sw.0" depart="0.00" departLane="1053267667#3_0" departPos="22.88" departSpeed="22.73" departDelay="0.00" arrival="16.00" arrivalLane="978400303#1_0" arrivalPos="131.20" arrivalSpeed="26.00" duration="16.00" routeLength="254.38" waitingTime="0.00" waitingCount="0" stopTime="0.00" timeLoss="4.83" rerouteNo="0" devices="tripinfo_flow_emergency_sw.0" vType="emergency" speedFactor="0.94" vaporized=""/>
    <tripinfo id="flow_passenger_en.0" depart="0.00" departLane="749662140#0_2" departPos="7.10" departSpeed="15.38" departDelay="0.00" arrival="16.00" arrivalLane="749988360#2_2" arrivalPos="63.94" arrivalSpeed="19.99" duration="16.00" routeLength="191.34" waitingTime="0.00" waitingCount="0" stopTime="0.00" timeLoss="5.30" rerouteNo="0" devices="tripinfo_flow_passenger_en.0" vType="passenger" speedFactor="1.02" vaporized=""/>
    <tripinfo id="flow_emergency_sn.0" depart="0.00" departLane="1053267667#3_2" departPos="0.00" departSpeed="24.40" departDelay="0.00" arrival="18.00" arrivalLane="749988360#2_2" arrivalPos="63.94" arrivalSpeed="24.06" duration="18.00" routeLength="243.13" waitingTime="2.00" waitingCount="1" stopTime="0.00" timeLoss="7.80" rerouteNo="0" devices="tripinfo_flow_emergency_sn.0" vType="emergency" speedFactor="0.88" vaporized=""/>
    <tripinfo id="flow_emergency_ws.0" depart="0.00" departLane="885403818#0_1" departPos="7.10" departSpeed="5.53" departDelay="0.00" arrival="21.00" arrivalLane="757092063_4" arrivalPos="47.17" arrivalSpeed="27.06" duration="21.00" routeLength="232.59" waitingTime="0.00" waitingCount="0" stopTime="0.00" timeLoss="13.64" rerouteNo="0" devices="tripinfo_flow_emergency_ws.0" vType="emergency" speedFactor="1.16" vaporized=""/>
    <tripinfo id="flow_passenger_sw.0" depart="0.00" departLane="1053267667#3_2" departPos="74.11" departSpeed="5.96" departDelay="0.00" arrival="21.00" arrivalLane="978400303#1_0" arrivalPos="131.20" arrivalSpeed="19.01" duration="21.00" routeLength="203.15" waitingTime="2.00" waitingCount="1" stopTime="0.00" timeLoss="10.68" rerouteNo="0" devices="tripinfo_flow_passenger_sw.0" vType="passenger" speedFactor="0.95" vaporized=""/>
    <tripinfo id="flow_bus_sw.0" depart="0.00" departLane="1053267667#3_1" departPos="14.20" departSpeed="0.00" departDelay="0.00" arrival="25.00" arrivalLane="978400303#1_0" arrivalPos="131.20" arrivalSpeed="15.60" duration="25.00" routeLength="263.06" waitingTime="0.00" waitingCount="0" stopTime="0.00" timeLoss="8.40" rerouteNo="0" devices="tripinfo_flow_bus_sw.0" vType="bus" speedFactor="0.89" vaporized=""/>
    <tripinfo id="flow_emergency_we.0" depart="0.00" departLane="885403818#0_3" departPos="7.10" departSpeed="26.01" departDelay="0.00" arrival="26.00" arrivalLane="563175146#1_2" arrivalPos="228.90" arrivalSpeed="25.30" duration="26.00" routeLength="372.11" waitingTime="3.00" waitingCount="1" stopTime="0.00" timeLoss="11.09" rerouteNo="0" devices="tripinfo_flow_emergency_we.0" vType="emergency" speedFactor="0.94" vaporized=""/>
    <tripinfo id="flow_truck_sw.0" depart="2.00" departLane="1053267667#3_0" departPos="0.00" departSpeed="10.33" departDelay="2.00" arrival="27.00" arrivalLane="978400303#1_0" arrivalPos="131.20" arrivalSpeed="16.98" duration="25.00" routeLength="277.26" waitingTime="0.00" waitingCount="0" stopTime="0.00" timeLoss="9.07" rerouteNo="0" devices="tripinfo_flow_truck_sw.0" vType="truck" speedFactor="1.18" vaporized=""/>
    <tripinfo id="flow_passenger_sw.1" depart="9.00" departLane="1053267667#3_1" departPos="0.00" departSpeed="2.50" departDelay="0.00" arrival="29.00" arrivalLane="978400303#1_0" arrivalPos="131.20" arrivalSpeed="19.77" duration="20.00" routeLength="277.26" waitingTime="0.00" waitingCount="0" stopTime="0.00" timeLoss="5.16" rerouteNo="0" devices="tripinfo_flow_passenger_sw.1" vType="passenger" speedFactor="1.00" vaporized=""/>
    <tripinfo id="flow_passenger_sn.0" depart="2.00" departLane="1053267667#3_1" departPos="27.55" departSpeed="13.14" departDelay="2.00" arrival="30.00" arrivalLane="749988360#2_0" arrivalPos="63.94" arrivalSpeed="19.78" duration="28.00" routeLength="215.58" waitingTime="6.00" waitingCount="3" stopTime="0.00" timeLoss="16.86" rerouteNo="0" devices="tripinfo_flow_passenger_sn.0" vType="passenger" speedFactor="0.92" vaporized=""/>
    <tripinfo id="flow_passenger_we.0" depart="0.00" departLane="885403818#0_0" departPos="9.61" departSpeed="20.00" departDelay="0.00" arrival="31.00" arrivalLane="563175146#1_0" arrivalPos="228.90" arrivalSpeed="19.25" duration="31.00" routeLength="369.60" waitingTime="0.00" waitingCount="0" stopTime="0.00" timeLoss="12.01" rerouteNo="0" devices="tripinfo_flow_passenger_we.0" vType="passenger" speedFactor="1.13" vaporized=""/>
    <tripinfo id="flow_passenger_sn.5" depart="15.00" departLane="1053267667#3_0" departPos="0.00" departSpeed="14.93" departDelay="0.00" arrival="32.00" arrivalLane="749988360#2_0" arrivalPos="63.94" arrivalSpeed="19.47" duration="17.00" routeLength="243.13" waitingTime="0.00" waitingCount="0" stopTime="0.00" timeLoss="4.10" rerouteNo="0" devices="tripinfo_flow_passenger_sn.5" vType="passenger" speedFactor="0.88" vaporized=""/>
    <tripinfo id="flow_truck_sn.0" depart="3.00" departLane="1053267667#3_2" departPos="21.77" departSpeed="16.75" departDelay="3.00" arrival="33.00" arrivalLane="749988360#2_2" arrivalPos="63.94" arrivalSpeed="16.96" duration="30.00" routeLength="221.36" waitingTime="3.00" waitingCount="1" stopTime="0.00" timeLoss="17.17" rerouteNo="0" devices="tripinfo_flow_truck_sn.0" vType="truck" speedFactor="0.97" vaporized=""/>
    <tripinfo id="flow_truck_we.0" depart="0.00" departLane="885403818#0_2" departPos="0.00" departSpeed="18.00" departDelay="0.00" arrival="33.00" arrivalLane="563175146#1_1" arrivalPos="228.90" arrivalSpeed="17.37" duration="33.00" routeLength="379.21" waitingTime="0.00" waitingCount="0" stopTime="0.00" timeLoss="11.90" rerouteNo="0" devices="tripinfo_flow_truck_we.0" vType="truck" speedFactor="1.10" vaporized=""/>
    <tripinfo id="flow_passenger_sn.1" depart="4.00" departLane="1053267667#3_1" departPos="0.00" departSpeed="0.55" departDelay="1.00" arrival="34.00" arrivalLane="749988360#2_0" arrivalPos="63.94" arrivalSpeed="19.44" duration="30.00" routeLength="243.13" waitingTime="1.00" waitingCount="1" stopTime="0.00" timeLoss="17.48" rerouteNo="0" devices="tripinfo_flow_passenger_sn.1" vType="passenger" speedFactor="0.96" vaporized=""/>
    <tripinfo id="flow_bus_sn.0" depart="0.00" departLane="1053267667#3_1" departPos="7.10" departSpeed="0.00" departDelay="0.00" arrival="35.00" arrivalLane="749988360#2_2" arrivalPos="63.94" arrivalSpeed="15.26" duration="35.00" routeLength="236.03" waitingTime="2.00" waitingCount="2" stopTime="0.00" timeLoss="19.79" rerouteNo="0" devices="tripinfo_flow_bus_sn.0" vType="bus" speedFactor="1.05" vaporized=""/>
    <tripinfo id="flow_passenger_sw.2" depart="18.00" departLane="1053267667#3_0" departPos="0.00" departSpeed="4.78" departDelay="0.00" arrival="37.00" arrivalLane="978400303#1_0" arrivalPos="131.20" arrivalSpeed="19.43" duration="19.00" routeLength="277.26" waitingTime="0.00" waitingCount="0" stopTime="0.00" timeLoss="4.96" rerouteNo="0" devices="tripinfo_flow_passenger_sw.2" vType="passenger" speedFactor="0.94" vaporized=""/>
    <tripinfo id="flow_passenger_sn.2" depart="7.00" departLane="1053267667#3_1" departPos="17.88" departSpeed="3.66" departDelay="1.00" arrival="40.00" arrivalLane="749988360#2_0" arrivalPos="63.94" arrivalSpeed="19.89" duration="33.00" routeLength="225.25" waitingTime="8.00" waitingCount="1" stopTime="0.00" timeLoss="20.76" rerouteNo="0" devices="tripinfo_flow_passenger_sn.2" vType="passenger" speedFactor="0.90" vaporized=""/>
    <tripinfo id="flow_passenger_sn.4" depart="12.00" departLane="1053267667#3_1" departPos="0.00" departSpeed="3.98" departDelay="0.00" arrival="41.00" arrivalLane="749988360#2_1" arrivalPos="63.94" arrivalSpeed="19.34" duration="29.00" routeLength="243.13" waitingTime="1.00" waitingCount="1" stopTime="0.00" timeLoss="16.05" rerouteNo="0" devices="tripinfo_flow_passenger_sn.4" vType="passenger" speedFactor="1.08" vaporized=""/>
    <tripinfo id="flow_passenger_sn.8" depart="24.00" departLane="1053267667#3_0" departPos="0.00" departSpeed="11.10" departDelay="0.00" arrival="41.00" arrivalLane="749988360#2_0" arrivalPos="63.94" arrivalSpeed="19.15" duration="17.00" routeLength="243.13" waitingTime="0.00" waitingCount="0" stopTime="0.00" timeLoss="4.42" rerouteNo="0" devices="tripinfo_flow_passenger_sn.8" vType="passenger" speedFactor="1.00" vaporized=""/>
    <tripinfo id="flow_passenger_sn.6" depart="18.00" departLane="1053267667#3_1" departPos="0.00" departSpeed="2.50" departDelay="0.00" arrival="42.00" arrivalLane="749988360#2_1" arrivalPos="63.94" arrivalSpeed="18.93" duration="24.00" routeLength="243.13" waitingTime="1.00" waitingCount="1" stopTime="0.00" timeLoss="11.67" rerouteNo="0" devices="tripinfo_flow_passenger_sn.6" vType="passenger" speedFactor="0.97" vaporized=""/>
    <tripinfo id="flow_truck_se.0" depart="0.00" departLane="1053267667#3_1" departPos="21.30" departSpeed="18.00" departDelay="0.00" arrival="44.00" arrivalLane="563175146#1_2" arrivalPos="228.90" arrivalSpeed="17.67" duration="44.00" routeLength="341.39" waitingTime="12.00" waitingCount="3" stopTime="0.00" timeLoss="23.87" rerouteNo="0" devices="tripinfo_flow_truck_se.0" vType="truck" speedFactor="1.02" vaporized=""/>
    <tripinfo id="flow_passenger_se.1" depart="7.00" departLane="1053267667#3_1" departPos="28.65" departSpeed="3.66" departDelay="0.00" arrival="46.00" arrivalLane="563175146#1_2" arrivalPos="228.90" arrivalSpeed="19.90" duration="39.00" routeLength="334.04" waitingTime="4.00" waitingCount="1" stopTime="0.00" timeLoss="19.66" rerouteNo="0" devices="tripinfo_flow_passenger_se.1" vType="passenger" speedFactor="0.85" vaporized=""/>
    <tripinfo id="flow_passenger_sn.3" depart="9.00" departLane="1053267667#3_2" departPos="0.00" departSpeed="3.34" departDelay="0.00" arrival="46.00" arrivalLane="749988360#2_2" arrivalPos="63.94" arrivalSpeed="19.75" duration="37.00" routeLength="243.13" waitingTime="8.00" waitingCount="1" stopTime="0.00" timeLoss="23.87" rerouteNo="0" devices="tripinfo_flow_passenger_sn.3" vType="passenger" speedFactor="1.10" vaporized=""/>
    <tripinfo id="flow_bus_se.0" depart="0.00" departLane="1053267667#3_1" departPos="0.00" departSpeed="0.00" departDelay="0.00" arrival="50.00" arrivalLane="563175146#1_2" arrivalPos="228.90" arrivalSpeed="15.99" duration="50.00" routeLength="362.69" waitingTime="4.00" waitingCount="2" stopTime="0.00" timeLoss="25.56" rerouteNo="0" devices="tripinfo_flow_bus_se.0" vType="bus" speedFactor="0.83" vaporized=""/>
    <tripinfo id="flow_passenger_sn.9" depart="27.00" departLane="1053267667#3_2" departPos="0.00" departSpeed="5.66" departDelay="0.00" arrival="50.00" arrivalLane="749988360#2_1" arrivalPos="63.94" arrivalSpeed="19.99" duration="23.00" routeLength="243.13" waitingTime="1.00" waitingCount="1" stopTime="0.00" timeLoss="10.25" rerouteNo="0" devices="tripinfo_flow_passenger_sn.9" vType="passenger" speedFactor="0.92" vaporized=""/>
    <tripinfo id="flow_emergency_se.0" depart="0.00" departLane="1053267667#3_0" departPos="0.00" departSpeed="10.64" departDelay="0.00" arrival="51.00" arrivalLane="563175146#1_2" arrivalPos="228.90" arrivalSpeed="19.48" duration="51.00" routeLength="362.69" waitingTime="15.00" waitingCount="3" stopTime="0.00" timeLoss="34.52" rerouteNo="0" devices="tripinfo_flow_emergency_se.0" vType="emergency" speedFactor="0.93" vaporized=""/>
    <tripinfo id="flow_passenger_sn.7" depart="22.00" departLane="1053267667#3_2" departPos="14.63" departSpeed="0.69" departDelay="1.00" arrival="51.00" arrivalLane="749988360#2_2" arrivalPos="63.94" arrivalSpeed="19.18" duration="29.00" routeLength="228.50" waitingTime="2.00" waitingCount="1" stopTime="0.00" timeLoss="16.63" rerouteNo="0" devices="tripinfo_flow_passenger_sn.7" vType="passenger" speedFactor="1.00" vaporized=""/>
    <tripinfo id="flow_passenger_sn.11" depart="35.00" departLane="1053267667#3_1" departPos="0.00" departSpeed="7.22" departDelay="2.00" arrival="52.00" arrivalLane="749988360#2_1" arrivalPos="63.94" arrivalSpeed="18.98" duration="17.00" routeLength="243.13" waitingTime="0.00" waitingCount="0" stopTime="0.00" timeLoss="4.60" rerouteNo="0" devices="tripinfo_flow_passenger_sn.11" vType="passenger" speedFactor="0.96" vaporized=""/>
    <tripinfo id="flow_passenger_se.0" depart="1.00" departLane="1053267667#3_2" departPos="0.00" departSpeed="0.15" departDelay="1.00" arrival="53.00" arrivalLane="563175146#1_2" arrivalPos="228.90" arrivalSpeed="19.85" duration="52.00" routeLength="362.69" waitingTime="10.00" waitingCount="2" stopTime="0.00" timeLoss="31.86" rerouteNo="0" devices="tripinfo_flow_passenger_se.0" vType="passenger" speedFactor="0.87" vaporized=""/>
    <tripinfo id="flow_passenger_sn.14" depart="42.00" departLane="1053267667#3_0" departPos="45.13" departSpeed="20.00" departDelay="0.00" arrival="53.00" arrivalLane="749988360#2_0" arrivalPos="63.94" arrivalSpeed="19.74" duration="11.00" routeLength="198.00" waitingTime="0.00" waitingCount="0" stopTime="0.00" timeLoss="0.78" rerouteNo="0" devices="tripinfo_flow_passenger_sn.14" vType="passenger" speedFactor="1.04" vaporized=""/>
    <tripinfo id="flow_passenger_sn.12" depart="36.00" departLane="1053267667#3_1" departPos="0.00" departSpeed="5.81" departDelay="0.00" arrival="54.00" arrivalLane="749988360#2_1" arrivalPos="63.94" arrivalSpeed="19.70" duration="18.00" routeLength="243.13" waitingTime="0.00" waitingCount="0" stopTime="0.00" timeLoss="5.77" rerouteNo="0" devices="tripinfo_flow_passenger_sn.12" vType="passenger" speedFactor="0.99" vaporized=""/>
    <tripinfo id="flow_passenger_se.2" depart="14.00" departLane="1053267667#3_1" departPos="0.00" departSpeed="2.50" departDelay="0.00" arrival="55.00" arrivalLane="563175146#1_2" arrivalPos="228.90" arrivalSpeed="19.41" duration="41.00" routeLength="362.69" waitingTime="6.00" waitingCount="1" stopTime="0.00" timeLoss="21.16" rerouteNo="0" devices="tripinfo_flow_passenger_se.2" vType="passenger" speedFactor="1.02" vaporized=""/>
    <tripinfo id="flow_bus_sn.1" depart="20.00" departLane="1053267667#3_2" departPos="0.00" departSpeed="0.00" departDelay="0.00" arrival="56.00" arrivalLane="749988360#2_2" arrivalPos="63.94" arrivalSpeed="15.87" duration="36.00" routeLength="243.13" waitingTime="5.00" waitingCount="1" stopTime="0.00" timeLoss="20.55" rerouteNo="0" devices="tripinfo_flow_bus_sn.1" vType="bus" speedFactor="0.96" vaporized=""/>
    <tripinfo id="flow_passenger_se.5" depart="35.00" departLane="1053267667#3_1" departPos="43.99" departSpeed="16.13" departDelay="0.00" arrival="56.00" arrivalLane="563175146#1_2" arrivalPos="228.90" arrivalSpeed="19.87" duration="21.00" routeLength="318.70" waitingTime="0.00" waitingCount="0" stopTime="0.00" timeLoss="3.90" rerouteNo="0" devices="tripinfo_flow_passenger_se.5" vType="passenger" speedFactor="1.01" vaporized=""/>
    <tripinfo id="flow_passenger_sn.10" depart="30.00" departLane="1053267667#3_2" departPos="0.00" departSpeed="7.05" departDelay="0.00" arrival="58.00" arrivalLane="749988360#2_2" arrivalPos="63.94" arrivalSpeed="19.23" duration="28.00" routeLength="243.13" waitingTime="0.00" waitingCount="0" stopTime="0.00" timeLoss="15.05" rerouteNo="0" devices="tripinfo_flow_passenger_sn.10" vType="passenger" speedFactor="0.89" vaporized=""/>
    <tripinfo id="flow_passenger_se.3" depart="21.00" departLane="1053267667#3_0" departPos="0.00" departSpeed="9.42" departDelay="0.00" arrival="59.00" arrivalLane="563175146#1_2" arrivalPos="228.90" arrivalSpeed="19.57" duration="38.00" routeLength="362.69" waitingTime="8.00" waitingCount="1" stopTime="0.00" timeLoss="18.53" rerouteNo="0" devices="tripinfo_flow_passenger_se.3" vType="passenger" speedFactor="1.03" vaporized=""/>
    <tripinfo id="flow_passenger_sw.3" depart="27.00" departLane="1053267667#3_1" departPos="0.00" departSpeed="5.43" departDelay="0.00" arrival="61.00" arrivalLane="978400303#1_0" arrivalPos="131.20" arrivalSpeed="19.05" duration="34.00" routeLength="277.26" waitingTime="11.00" waitingCount="1" stopTime="0.00" timeLoss="20.08" rerouteNo="0" devices="tripinfo_flow_passenger_sw.3" vType="passenger" speedFactor="1.09" vaporized=""/>
    <tripinfo id="flow_passenger_sn.13" depart="39.00" departLane="1053267667#3_2" departPos="0.00" departSpeed="5.48" departDelay="0.00" arrival="62.00" arrivalLane="749988360#2_2" arrivalPos="63.94" arrivalSpeed="19.25" duration="23.00" routeLength="243.13" waitingTime="0.00" waitingCount="0" stopTime="0.00" timeLoss="9.99" rerouteNo="0" devices="tripinfo_flow_passenger_sn.13" vType="passenger" speedFactor="1.10" vaporized=""/>
    <tripinfo id="flow_passenger_sw.4" depart="36.00" departLane="1053267667#3_0" departPos="0.00" departSpeed="2.50" departDelay="0.00" arrival="63.00" arrivalLane="978400303#1_0" arrivalPos="131.20" arrivalSpeed="19.50" duration="27.00" routeLength="277.26" waitingTime="3.00" waitingCount="1" stopTime="0.00" timeLoss="12.77" rerouteNo="0" devices="tripinfo_flow_passenger_sw.4" vType="passenger" speedFactor="1.07" vaporized=""/>
    <tripinfo id="flow_bus_sn.2" depart="40.00" departLane="1053267667#3_0" departPos="0.00" departSpeed="0.00" departDelay="0.00" arrival="64.00" arrivalLane="749988360#2_1" arrivalPos="63.94" arrivalSpeed="15.79" duration="24.00" routeLength="243.13" waitingTime="1.00" waitingCount="1" stopTime="0.00" timeLoss="8.19" rerouteNo="0" devices="tripinfo_flow_bus_sn.2" vType="bus" speedFactor="1.02" vaporized=""/>
    <tripinfo id="flow_passenger_sn.15" depart="45.00" departLane="1053267667#3_2" departPos="0.00" departSpeed="8.18" departDelay="0.00" arrival="65.00" arrivalLane="749988360#2_2" arrivalPos="63.94" arrivalSpeed="19.41" duration="20.00" routeLength="243.13" waitingTime="0.00" waitingCount="0" stopTime="0.00" timeLoss="7.79" rerouteNo="0" devices="tripinfo_flow_passenger_sn.15" vType="passenger" speedFactor="1.00" vaporized=""/>
    <tripinfo id="flow_passenger_sn.16" depart="48.00" departLane="1053267667#3_1" departPos="0.00" departSpeed="8.67" departDelay="0.00" arrival="65.00" arrivalLane="749988360#2_1" arrivalPos="63.94" arrivalSpeed="16.64" duration="17.00" routeLength="243.13" waitingTime="0.00" waitingCount="0" stopTime="0.00" timeLoss="4.80" rerouteNo="0" devices="tripinfo_flow_passenger_sn.16" vType="passenger" speedFactor="0.73" vaporized=""/>
    <tripinfo id="flow_bus_se.1" depart="30.00" departLane="1053267667#3_1" departPos="0.00" departSpeed="0.00" departDelay="0.00" arrival="68.00" arrivalLane="563175146#1_2" arrivalPos="228.90" arrivalSpeed="15.97" duration="38.00" routeLength="362.69" waitingTime="0.00" waitingCount="0" stopTime="0.00" timeLoss="14.25" rerouteNo="0" devices="tripinfo_flow_bus_se.1" vType="bus" speedFactor="1.06" vaporized=""/>
    <tripinfo id="flow_passenger_sn.17" depart="51.00" departLane="1053267667#3_0" departPos="0.00" departSpeed="10.13" departDelay="0.00" arrival="68.00" arrivalLane="749988360#2_0" arrivalPos="63.94" arrivalSpeed="18.91" duration="17.00" routeLength="243.13" waitingTime="0.00" waitingCount="0" stopTime="0.00" timeLoss="3.94" rerouteNo="0" devices="tripinfo_flow_passenger_sn.17" vType="passenger" speedFactor="0.93" vaporized=""/>
    <tripinfo id="flow_passenger_se.4" depart="28.00" departLane="1053267667#3_0" departPos="23.53" departSpeed="6.98" departDelay="0.00" arrival="69.00" arrivalLane="563175146#1_2" arrivalPos="228.90" arrivalSpeed="16.28" duration="41.00" routeLength="339.16" waitingTime="13.00" waitingCount="1" stopTime="0.00" timeLoss="23.10" rerouteNo="0" devices="tripinfo_flow_passenger_se.4" vType="passenger" speedFactor="1.12" vaporized=""/>
    <tripinfo id="flow_bus_sw.1" depart="40.00" departLane="1053267667#3_0" departPos="7.10" departSpeed="0.00" departDelay="0.00" arrival="69.00" arrivalLane="978400303#1_0" arrivalPos="131.20" arrivalSpeed="15.40" duration="29.00" routeLength="270.16" waitingTime="0.00" waitingCount="0" stopTime="0.00" timeLoss="11.37" rerouteNo="0" devices="tripinfo_flow_bus_sw.1" vType="bus" speedFactor="1.06" vaporized=""/>
    <tripinfo id="flow_passenger_sw.5" depart="46.00" departLane="1053267667#3_0" departPos="0.00" departSpeed="6.11" departDelay="1.00" arrival="70.00" arrivalLane="978400303#1_0" arrivalPos="131.20" arrivalSpeed="16.84" duration="24.00" routeLength="277.26" waitingTime="0.00" waitingCount="0" stopTime="0.00" timeLoss="9.91" rerouteNo="0" devices="tripinfo_flow_passenger_sw.5" vType="passenger" speedFactor="0.95" vaporized=""/>
    <tripinfo id="flow_passenger_se.6" depart="42.00" departLane="1053267667#3_2" departPos="0.00" departSpeed="4.75" departDelay="0.00" arrival="71.00" arrivalLane="563175146#1_2" arrivalPos="228.90" arrivalSpeed="19.99" duration="29.00" routeLength="362.69" waitingTime="0.00" waitingCount="0" stopTime="0.00" timeLoss="9.36" rerouteNo="0" devices="tripinfo_flow_passenger_se.6" vType="passenger" speedFactor="0.96" vaporized=""/>
    <tripinfo id="flow_passenger_sn.18" depart="54.00" departLane="1053267667#3_0" departPos="0.00" departSpeed="11.12" departDelay="0.00" arrival="71.00" arrivalLane="749988360#2_0" arrivalPos="63.94" arrivalSpeed="18.74" duration="17.00" routeLength="243.13" waitingTime="0.00" waitingCount="0" stopTime="0.00" timeLoss="4.13" rerouteNo="0" devices="tripinfo_flow_passenger_sn.18" vType="passenger" speedFactor="1.08" vaporized=""/>
    <tripinfo id="flow_passenger_sn.19" depart="57.00" departLane="1053267667#3_2" departPos="0.00" departSpeed="13.47" departDelay="0.00" arrival="71.00" arrivalLane="749988360#2_2" arrivalPos="63.94" arrivalSpeed="19.82" duration="14.00" routeLength="243.13" waitingTime="0.00" waitingCount="0" stopTime="0.00" timeLoss="0.96" rerouteNo="0" devices="tripinfo_flow_passenger_sn.19" vType="passenger" speedFactor="1.03" vaporized=""/>
    <tripinfo id="flow_passenger_sw.6" depart="54.00" departLane="1053267667#3_1" departPos="0.00" departSpeed="13.96" departDelay="0.00" arrival="72.00" arrivalLane="978400303#1_0" arrivalPos="131.20" arrivalSpeed="19.99" duration="18.00" routeLength="277.26" waitingTime="0.00" waitingCount="0" stopTime="0.00" timeLoss="3.42" rerouteNo="0" devices="tripinfo_flow_passenger_sw.6" vType="passenger" speedFactor="0.91" vaporized=""/>
    <tripinfo id="flow_passenger_se.7" depart="49.00" departLane="1053267667#3_0" departPos="0.00" departSpeed="6.73" departDelay="0.00" arrival="75.00" arrivalLane="563175146#1_2" arrivalPos="228.90" arrivalSpeed="19.66" duration="26.00" routeLength="362.69" waitingTime="0.00" waitingCount="0" stopTime="0.00" timeLoss="6.15" rerouteNo="0" devices="tripinfo_flow_passenger_se.7" vType="passenger" speedFactor="1.00" vaporized=""/>
    <tripinfo id="flow_truck_en.0" depart="2.00" departLane="749662140#0_1" departPos="14.62" departSpeed="12.00" departDelay="2.00" arrival="82.00" arrivalLane="749988360#2_2" arrivalPos="63.94" arrivalSpeed="17.70" duration="80.00" routeLength="183.82" waitingTime="58.00" waitingCount="1" stopTime="0.00" timeLoss="69.70" rerouteNo="0" devices="tripinfo_flow_truck_en.0" vType="truck" speedFactor="1.18" vaporized=""/>
    <tripinfo id="flow_bus_en.0" depart="0.00" departLane="749662140#0_2" departPos="0.00" departSpeed="0.00" departDelay="0.00" arrival="85.00" arrivalLane="749988360#2_2" arrivalPos="63.94" arrivalSpeed="15.04" duration="85.00" routeLength="198.44" waitingTime="57.00" waitingCount="1" stopTime="0.00" timeLoss="72.22" rerouteNo="0" devices="tripinfo_flow_bus_en.0" vType="bus" speedFactor="1.06" vaporized=""/>
    <tripinfo id="flow_truck_ew.0" depart="3.00" departLane="749662140#0_2" departPos="0.00" departSpeed="11.49" departDelay="3.00" arrival="86.00" arrivalLane="978400303#1_1" arrivalPos="131.20" arrivalSpeed="17.07" duration="83.00" routeLength="253.86" waitingTime="59.00" waitingCount="1" stopTime="0.00" timeLoss="68.04" rerouteNo="0" devices="tripinfo_flow_truck_ew.0" vType="truck" speedFactor="1.15" vaporized=""/>
    <tripinfo id="flow_passenger_ew.1" depart="4.00" departLane="749662140#0_3" departPos="0.00" departSpeed="3.74" departDelay="0.00" arrival="86.00" arrivalLane="978400303#1_2" arrivalPos="131.20" arrivalSpeed="19.19" duration="82.00" routeLength="253.86" waitingTime="53.00" waitingCount="1" stopTime="0.00" timeLoss="68.57" rerouteNo="0" devices="tripinfo_flow_passenger_ew.1" vType="passenger" speedFactor="1.09" vaporized=""/>
    <tripinfo id="flow_passenger_en.2" depart="12.00" departLane="749662140#0_1" departPos="0.00" departSpeed="2.50" departDelay="0.00" arrival="87.00" arrivalLane="749988360#2_2" arrivalPos="63.94" arrivalSpeed="19.44" duration="75.00" routeLength="198.44" waitingTime="51.00" waitingCount="1" stopTime="0.00" timeLoss="64.12" rerouteNo="0" devices="tripinfo_flow_passenger_en.2" vType="passenger" speedFactor="1.14" vaporized=""/>
    <tripinfo id="flow_bus_ew.0" depart="0.00" departLane="749662140#0_1" departPos="0.00" departSpeed="0.00" departDelay="0.00" arrival="88.00" arrivalLane="978400303#1_0" arrivalPos="131.20" arrivalSpeed="15.42" duration="88.00" routeLength="253.86" waitingTime="58.00" waitingCount="1" stopTime="0.00" timeLoss="71.67" rerouteNo="0" devices="tripinfo_flow_bus_ew.0" vType="bus" speedFactor="0.94" vaporized=""/>
    <tripinfo id="flow_passenger_en.1" depart="6.00" departLane="749662140#0_0" departPos="0.00" departSpeed="17.16" departDelay="0.00" arrival="88.00" arrivalLane="749988360#2_2" arrivalPos="63.94" arrivalSpeed="19.69" duration="82.00" routeLength="198.44" waitingTime="65.00" waitingCount="1" stopTime="0.00" timeLoss="71.63" rerouteNo="0" devices="tripinfo_flow_passenger_en.1" vType="passenger" speedFactor="1.09" vaporized=""/>
    <tripinfo id="flow_passenger_ew.2" depart="8.00" departLane="749662140#0_0" departPos="0.00" departSpeed="13.57" departDelay="0.00" arrival="89.00" arrivalLane="978400303#1_0" arrivalPos="131.20" arrivalSpeed="17.83" duration="81.00" routeLength="253.86" waitingTime="57.00" waitingCount="1" stopTime="0.00" timeLoss="68.27" rerouteNo="0" devices="tripinfo_flow_passenger_ew.2" vType="passenger" speedFactor="0.85" vaporized=""/>
    <tripinfo id="flow_passenger_ew.3" depart="12.00" departLane="749662140#0_0" departPos="0.00" departSpeed="2.50" departDelay="0.00" arrival="89.00" arrivalLane="978400303#1_1" arrivalPos="131.20" arrivalSpeed="19.46" duration="77.00" routeLength="253.86" waitingTime="50.00" waitingCount="3" stopTime="0.00" timeLoss="63.90" rerouteNo="0" devices="tripinfo_flow_passenger_ew.3" vType="passenger" speedFactor="1.02" vaporized=""/>
    <tripinfo id="flow_passenger_ew.7" depart="30.00" departLane="749662140#0_1" departPos="0.00" departSpeed="2.50" departDelay="2.00" arrival="91.00" arrivalLane="978400303#1_0" arrivalPos="131.20" arrivalSpeed="19.54" duration="61.00" routeLength="253.86" waitingTime="33.00" waitingCount="1" stopTime="0.00" timeLoss="47.77" rerouteNo="0" devices="tripinfo_flow_passenger_ew.7" vType="passenger" speedFactor="1.01" vaporized=""/>