<?xml version="1.0" encoding="UTF-8"?>

<!-- generated on 2025-05-25 21:57:42 by Eclipse SUMO GUI Version 1.23.1
<sumoConfiguration xmlns:xsi="http://www.w3.org/2001/XMLSchema-instance" xsi:noNamespaceSchemaLocation="http://sumo.dlr.de/xsd/sumoConfiguration.xsd">

    <input>
        <net-file value="../../../.Github_mhmdnvn18@gmail.com/SUMO/SUMO/test.net.xml"/>
        <route-files value="../../../.Github_mhmdnvn18@gmail.com/SUMO/SUMO/trips.trips.xml"/>
        <additional-files value="../../../.Github_mhmdnvn18@gmail.com/SUMO/SUMO/map.poly.xml"/>
    </input>

    <output>
        <tripinfo-output value="tripinfo.xml"/>
    </output>

    <time>
        <begin value="0"/>
        <end value="10000"/>
    </time>

    <traci_server>
        <remote-port value="51172"/>
    </traci_server>

</sumoConfiguration>
-->

<tripinfos xmlns:xsi="http://www.w3.org/2001/XMLSchema-instance" xsi:noNamespaceSchemaLocation="http://sumo.dlr.de/xsd/tripinfo_file.xsd">
    <tripinfo id="34" depart="34.00" departLane="-30688296#6_0" departPos="5.10" departSpeed="0.00" departDelay="0.00" arrival="59.00" arrivalLane="30688296#4_0" arrivalPos="39.36" arrivalSpeed="18.59" duration="25.00" routeLength="261.87" waitingTime="0.00" waitingCount="0" stopTime="0.00" timeLoss="11.98" rerouteNo="1" devices="tripinfo_34 routing_34" vType="DEFAULT_VEHTYPE" speedFactor="0.99" vaporized=""/>
    <tripinfo id="8" depart="8.00" departLane="518978931#1_0" departPos="5.10" departSpeed="0.00" departDelay="0.00" arrival="71.00" arrivalLane="48742261#2_0" arrivalPos="94.82" arrivalSpeed="12.08" duration="63.00" routeLength="948.80" waitingTime="0.00" waitingCount="0" stopTime="0.00" timeLoss="18.44" rerouteNo="1" devices="tripinfo_8 routing_8" vType="DEFAULT_VEHTYPE" speedFactor="0.94" vaporized=""/>
    <tripinfo id="64" depart="64.00" departLane="35928055#5_0" departPos="5.10" departSpeed="0.00" departDelay="0.00" arrival="78.00" arrivalLane="35928055#6_0" arrivalPos="11.00" arrivalSpeed="24.76" duration="14.00" routeLength="178.25" waitingTime="0.00" waitingCount="0" stopTime="0.00" timeLoss="6.32" rerouteNo="0" devices="tripinfo_64 routing_64" vType="DEFAULT_VEHTYPE" speedFactor="0.94" vaporized=""/>
    <tripinfo id="59" depart="59.00" departLane="239206121#4_0" departPos="5.10" departSpeed="0.00" departDelay="0.00" arrival="89.00" arrivalLane="-48768115#3_0" arrivalPos="83.65" arrivalSpeed="12.82" duration="30.00" routeLength="317.25" waitingTime="0.00" waitingCount="0" stopTime="0.00" timeLoss="8.54" rerouteNo="1" devices="tripinfo_59 routing_59" vType="DEFAULT_VEHTYPE" speedFactor="0.97" vaporized=""/>
    <tripinfo id="83" depart="83.00" departLane="48742273#1_0" departPos="5.10" departSpeed="0.00" departDelay="0.00" arrival="98.00" arrivalLane="48742273#1_0" arrivalPos="203.82" arrivalSpeed="26.70" duration="15.00" routeLength="198.72" waitingTime="0.00" waitingCount="0" stopTime="0.00" timeLoss="6.62" rerouteNo="1" devices="tripinfo_83 routing_83" vType="DEFAULT_VEHTYPE" speedFactor="0.97" vaporized=""/>
    <tripinfo id="21" depart="21.00" departLane="245932664_0" departPos="5.10" departSpeed="0.00" departDelay="0.00" arrival="99.00" arrivalLane="-304544028#5_0" arrivalPos="98.37" arrivalSpeed="8.38" duration="78.00" routeLength="835.71" waitingTime="0.00" waitingCount="0" stopTime="0.00" timeLoss="24.93" rerouteNo="1" devices="tripinfo_21 routing_21" vType="DEFAULT_VEHTYPE" speedFactor="1.01" vaporized=""/>
    <tripinfo id="79" depart="79.00" departLane="-30688296#4_0" departPos="5.10" departSpeed="0.00" departDelay="0.00" arrival="106.00" arrivalLane="48742258#2_0" arrivalPos="32.38" arrivalSpeed="12.94" duration="27.00" routeLength="253.84" waitingTime="0.00" waitingCount="0" stopTime="0.00" timeLoss="12.08" rerouteNo="1" devices="tripinfo_79 routing_79" vType="DEFAULT_VEHTYPE" speedFactor="1.09" vaporized=""/>
    <tripinfo id="91" depart="91.00" departLane="518978936#1_0" departPos="5.10" departSpeed="0.00" departDelay="0.00" arrival="107.00" arrivalLane="518978936#1_0" arrivalPos="234.53" arrivalSpeed="24.25" duration="16.00" routeLength="229.43" waitingTime="0.00" waitingCount="0" stopTime="0.00" timeLoss="5.87" rerouteNo="1" devices="tripinfo_91 routing_91" vType="DEFAULT_VEHTYPE" speedFactor="0.89" vaporized=""/>
    <tripinfo id="73" depart="73.00" departLane="518978931#1_0" departPos="5.10" departSpeed="0.00" departDelay="0.00" arrival="116.00" arrivalLane="1062105333#1_0" arrivalPos="155.99" arrivalSpeed="27.84" duration="43.00" routeLength="694.39" waitingTime="0.00" waitingCount="0" stopTime="0.00" timeLoss="18.41" rerouteNo="1" devices="tripinfo_73 routing_73" vType="DEFAULT_VEHTYPE" speedFactor="1.06" vaporized=""/>
    <tripinfo id="54" depart="54.00" departLane="-48768098#1_0" departPos="5.10" departSpeed="0.00" departDelay="0.00" arrival="124.00" arrivalLane="239206121#6_0" arrivalPos="31.47" arrivalSpeed="21.34" duration="70.00" routeLength="862.10" waitingTime="0.00" waitingCount="0" stopTime="0.00" timeLoss="28.31" rerouteNo="1" devices="tripinfo_54 routing_54" vType="DEFAULT_VEHTYPE" speedFactor="1.00" vaporized=""/>
    <tripinfo id="78" depart="78.00" departLane="-518978930#3_0" departPos="5.10" departSpeed="0.00" departDelay="0.00" arrival="131.00" arrivalLane="304481579_0" arrivalPos="102.56" arrivalSpeed="13.71" duration="53.00" routeLength="510.65" waitingTime="0.00" waitingCount="0" stopTime="0.00" timeLoss="14.95" rerouteNo="1" devices="tripinfo_78 routing_78" vType="DEFAULT_VEHTYPE" speedFactor="1.01" vaporized=""/>
    <tripinfo id="56" depart="56.00" departLane="-336846053#1_0" departPos="5.10" departSpeed="0.00" departDelay="0.00" arrival="137.00" arrivalLane="48742273#1_0" arrivalPos="203.82" arrivalSpeed="23.92" duration="81.00" routeLength="1192.56" waitingTime="0.00" waitingCount="0" stopTime="0.00" timeLoss="20.75" rerouteNo="1" devices="tripinfo_56 routing_56" vType="DEFAULT_VEHTYPE" speedFactor="0.90" vaporized=""/>
    <tripinfo id="109" depart="109.00" departLane="518980173#1_0" departPos="5.10" departSpeed="0.00" departDelay="0.00" arrival="145.00" arrivalLane="233952024#1_0" arrivalPos="153.88" arrivalSpeed="21.29" duration="36.00" routeLength="480.65" waitingTime="0.00" waitingCount="0" stopTime="0.00" timeLoss="11.57" rerouteNo="1" devices="tripinfo_109 routing_109" vType="DEFAULT_VEHTYPE" speedFactor="0.96" vaporized=""/>
    <tripinfo id="105" depart="105.00" departLane="518980173#3_0" departPos="5.10" departSpeed="0.00" departDelay="0.00" arrival="158.00" arrivalLane="48740803#10_1" arrivalPos="34.56" arrivalSpeed="6.95" duration="53.00" routeLength="613.86" waitingTime="0.00" waitingCount="0" stopTime="0.00" timeLoss="22.33" rerouteNo="1" devices="tripinfo_105 routing_105" vType="DEFAULT_VEHTYPE" speedFactor="1.07" vaporized=""/>
    <tripinfo id="87" depart="87.00" departLane="-336846053#1_0" departPos="5.10" departSpeed="0.00" departDelay="0.00" arrival="160.00" arrivalLane="35928055#5_0" arrivalPos="172.05" arrivalSpeed="28.01" duration="73.00" routeLength="1246.44" waitingTime="0.00" waitingCount="0" stopTime="0.00" timeLoss="18.66" rerouteNo="1" devices="tripinfo_87 routing_87" vType="DEFAULT_VEHTYPE" speedFactor="1.04" vaporized=""/>
    <tripinfo id="120" depart="120.00" departLane="506322871#3_0" departPos="5.10" departSpeed="0.00" departDelay="0.00" arrival="167.00" arrivalLane="239206121#7_0" arrivalPos="31.73" arrivalSpeed="20.81" duration="47.00" routeLength="613.78" waitingTime="0.00" waitingCount="0" stopTime="0.00" timeLoss="15.80" rerouteNo="1" devices="tripinfo_120 routing_120" vType="DEFAULT_VEHTYPE" speedFactor="0.94" vaporized=""/>
    <tripinfo id="152" depart="152.00" departLane="233952024#1_0" departPos="5.10" departSpeed="0.00" departDelay="0.00" arrival="181.00" arrivalLane="48768087#1_0" arrivalPos="106.02" arrivalSpeed="13.65" duration="29.00" routeLength="326.90" waitingTime="0.00" waitingCount="0" stopTime="0.00" timeLoss="11.29" rerouteNo="1" devices="tripinfo_152 routing_152" vType="DEFAULT_VEHTYPE" speedFactor="1.07" vaporized=""/>
    <tripinfo id="178" depart="178.00" departLane="-30688296#10_0" departPos="5.10" departSpeed="0.00" departDelay="0.00" arrival="204.00" arrivalLane="30688296#3_0" arrivalPos="42.39" arrivalSpeed="14.10" duration="26.00" routeLength="312.26" waitingTime="0.00" waitingCount="0" stopTime="0.00" timeLoss="11.97" rerouteNo="1" devices="tripinfo_178 routing_178" vType="DEFAULT_VEHTYPE" speedFactor="1.08" vaporized=""/>
    <tripinfo id="175" depart="175.00" departLane="336846053#3_0" departPos="5.10" departSpeed="0.00" departDelay="0.00" arrival="245.00" arrivalLane="48740803#9_0" arrivalPos="33.23" arrivalSpeed="12.38" duration="70.00" routeLength="824.11" waitingTime="0.00" waitingCount="0" stopTime="0.00" timeLoss="16.88" rerouteNo="1" devices="tripinfo_175 routing_175" vType="DEFAULT_VEHTYPE" speedFactor="0.92" vaporized=""/>
    <tripinfo id="194" depart="194.00" departLane="518978931#2_0" departPos="5.10" departSpeed="0.00" departDelay="0.00" arrival="252.00" arrivalLane="48742261#2_0" arrivalPos="94.82" arrivalSpeed="12.73" duration="58.00" routeLength="839.93" waitingTime="0.00" waitingCount="0" stopTime="0.00" timeLoss="20.07" rerouteNo="1" devices="tripinfo_194 routing_194" vType="DEFAULT_VEHTYPE" speedFactor="1.00" vaporized=""/>
    <tripinfo id="221" depart="221.00" departLane="48768115#4_0" departPos="5.10" departSpeed="0.00" departDelay="0.00" arrival="254.00" arrivalLane="-48768098#1_0" arrivalPos="30.37" arrivalSpeed="13.73" duration="33.00" routeLength="326.65" waitingTime="0.00" waitingCount="0" stopTime="0.00" timeLoss="10.72" rerouteNo="1" devices="tripinfo_221 routing_221" vType="DEFAULT_VEHTYPE" speedFactor="1.15" vaporized=""/>
    <tripinfo id="177" depart="185.00" departLane="-48768115#4_0" departPos="5.10" departSpeed="0.00" departDelay="8.00" arrival="255.00" arrivalLane="35928055#5_0" arrivalPos="172.05" arrivalSpeed="28.22" duration="70.00" routeLength="1036.11" waitingTime="0.00" waitingCount="0" stopTime="0.00" timeLoss="22.74" rerouteNo="1" devices="tripinfo_177 routing_177" vType="DEFAULT_VEHTYPE" speedFactor="1.03" vaporized=""/>
    <tripinfo id="230" depart="232.00" departLane="518981370#0_0" departPos="5.10" departSpeed="0.00" departDelay="2.00" arrival="264.00" arrivalLane="-48768087#1_0" arrivalPos="103.42" arrivalSpeed="13.39" duration="32.00" routeLength="277.74" waitingTime="0.00" waitingCount="0" stopTime="0.00" timeLoss="11.17" rerouteNo="1" devices="tripinfo_230 routing_230" vType="DEFAULT_VEHTYPE" speedFactor="1.04" vaporized=""/>
    <tripinfo id="235" depart="235.00" departLane="48742278#0_0" departPos="5.10" departSpeed="0.00" departDelay="0.00" arrival="272.00" arrivalLane="48742261#4_0" arrivalPos="35.73" arrivalSpeed="12.19" duration="37.00" routeLength="386.82" waitingTime="0.00" waitingCount="0" stopTime="0.00" timeLoss="6.24" rerouteNo="1" devices="tripinfo_235 routing_235" vType="DEFAULT_VEHTYPE" speedFactor="0.96" vaporized=""/>
    <tripinfo id="278" depart="278.00" departLane="518978935#1_0" departPos="5.10" departSpeed="0.00" departDelay="0.00" arrival="293.00" arrivalLane="518978935#1_0" arrivalPos="233.34" arrivalSpeed="26.25" duration="15.00" routeLength="228.24" waitingTime="0.00" waitingCount="0" stopTime="0.00" timeLoss="6.52" rerouteNo="1" devices="tripinfo_278 routing_278" vType="DEFAULT_VEHTYPE" speedFactor="0.99" vaporized=""/>
    <tripinfo id="254" depart="254.00" departLane="30688296#1_0" departPos="5.10" departSpeed="0.00" departDelay="0.00" arrival="306.00" arrivalLane="304544028#5_0" arrivalPos="98.37" arrivalSpeed="7.17" duration="52.00" routeLength="476.12" waitingTime="0.00" waitingCount="0" stopTime="0.00" timeLoss="8.87" rerouteNo="1" devices="tripinfo_254 routing_254" vType="DEFAULT_VEHTYPE" speedFactor="0.88" vaporized=""/>
    <tripinfo id="227" depart="227.00" departLane="-336846053#2_0" departPos="5.10" departSpeed="0.00" departDelay="0.00" arrival="319.00" arrivalLane="48742273#1_0" arrivalPos="203.82" arrivalSpeed="29.64" duration="92.00" routeLength="1246.25" waitingTime="7.00" waitingCount="1" stopTime="0.00" timeLoss="39.83" rerouteNo="1" devices="tripinfo_227 routing_227" vType="DEFAULT_VEHTYPE" speedFactor="1.11" vaporized=""/>
    <tripinfo id="295" depart="295.00" departLane="48768159#2_0" departPos="5.10" departSpeed="0.00" departDelay="0.00" arrival="323.00" arrivalLane="48768159#4_1" arrivalPos="101.21" arrivalSpeed="14.96" duration="28.00" routeLength="378.35" waitingTime="0.00" waitingCount="0" stopTime="0.00" timeLoss="13.30" rerouteNo="1" devices="tripinfo_295 routing_295" vType="DEFAULT_VEHTYPE" speedFactor="0.96" vaporized=""/>
    <tripinfo id="315" depart="316.00" departLane="48742261#3_0" departPos="5.10" departSpeed="0.00" departDelay="1.00" arrival="347.00" arrivalLane="48742253#1_0" arrivalPos="68.79" arrivalSpeed="15.53" duration="31.00" routeLength="301.77" waitingTime="0.00" waitingCount="0" stopTime="0.00" timeLoss="12.21" rerouteNo="1" devices="tripinfo_315 routing_315" vType="DEFAULT_VEHTYPE" speedFactor="1.15" vaporized=""/>
    <tripinfo id="320" depart="320.00" departLane="48768098#0_0" departPos="5.10" departSpeed="0.00" departDelay="0.00" arrival="350.00" arrivalLane="48768115#4_0" arrivalPos="98.85" arrivalSpeed="14.78" duration="30.00" routeLength="275.20" waitingTime="0.00" waitingCount="0" stopTime="0.00" timeLoss="11.75" rerouteNo="1" devices="tripinfo_320 routing_320" vType="DEFAULT_VEHTYPE" speedFactor="1.16" vaporized=""/>
    <tripinfo id="354" depart="354.00" departLane="239206121#1_0" departPos="5.10" departSpeed="0.00" departDelay="0.00" arrival="363.00" arrivalLane="239206121#2_0" arrivalPos="36.84" arrivalSpeed="17.84" duration="9.00" routeLength="80.15" waitingTime="0.00" waitingCount="0" stopTime="0.00" timeLoss="4.70" rerouteNo="0" devices="tripinfo_354 routing_354" vType="DEFAULT_VEHTYPE" speedFactor="0.98" vaporized=""/>
    <tripinfo id="325" depart="325.00" departLane="1062105335#2_0" departPos="5.10" departSpeed="0.00" departDelay="0.00" arrival="373.00" arrivalLane="-48768115#3_0" arrivalPos="83.65" arrivalSpeed="13.04" duration="48.00" routeLength="628.70" waitingTime="0.00" waitingCount="0" stopTime="0.00" timeLoss="14.45" rerouteNo="1" devices="tripinfo_325 routing_325" vType="DEFAULT_VEHTYPE" speedFactor="1.01" vaporized=""/>
    <tripinfo id="356" depart="356.00" departLane="-518978930#1_0" departPos="5.10" departSpeed="0.00" departDelay="0.00" arrival="383.00" arrivalLane="518980173#2_0" arrivalPos="15.68" arrivalSpeed="19.37" duration="27.00" routeLength="294.59" waitingTime="0.00" waitingCount="0" stopTime="0.00" timeLoss="11.57" rerouteNo="1" devices="tripinfo_356 routing_356" vType="DEFAULT_VEHTYPE" speedFactor="0.96" vaporized=""/>
    <tripinfo id="37" depart="37.00" departLane="48768098#2_0" departPos="5.10" departSpeed="0.00" departDelay="0.00" arrival="390.00" arrivalLane="48740801#4_0" arrivalPos="226.69" arrivalSpeed="31.72" duration="353.00" routeLength="858.16" waitingTime="301.00" waitingCount="1" stopTime="0.00" timeLoss="321.37" rerouteNo="1" devices="tripinfo_37 routing_37" vType="DEFAULT_VEHTYPE" speedFactor="1.18" vaporized=""/>
    <tripinfo id="44" depart="44.00" departLane="506322871#0_0" departPos="5.10" departSpeed="0.00" departDelay="0.00" arrival="393.00" arrivalLane="48740801#4_0" arrivalPos="226.69" arrivalSpeed="28.47" duration="349.00" routeLength="881.14" waitingTime="301.00" waitingCount="1" stopTime="0.00" timeLoss="317.69" rerouteNo="1" devices="tripinfo_44 routing_44" vType="DEFAULT_VEHTYPE" speedFactor="1.04" vaporized=""/>
    <tripinfo id="239" depart="239.00" departLane="-245932664_0" departPos="5.10" departSpeed="0.00" departDelay="0.00" arrival="395.00" arrivalLane="35928055#4_0" arrivalPos="42.53" arrivalSpeed="30.61" duration="156.00" routeLength="876.39" waitingTime="66.00" waitingCount="2" stopTime="0.00" timeLoss="116.23" rerouteNo="1" devices="tripinfo_239 routing_239" vType="DEFAULT_VEHTYPE" speedFactor="1.13" vaporized=""/>
    <tripinfo id="384" depart="384.00" departLane="518978931#1_0" departPos="5.10" departSpeed="0.00" departDelay="0.00" arrival="401.00" arrivalLane="518980185#1_0" arrivalPos="115.59" arrivalSpeed="30.61" duration="17.00" routeLength="291.92" waitingTime="0.00" waitingCount="0" stopTime="0.00" timeLoss="7.20" rerouteNo="1" devices="tripinfo_384 routing_384" vType="DEFAULT_VEHTYPE" speedFactor="1.10" vaporized=""/>
    <tripinfo id="400" depart="400.00" departLane="239206121#3_0" departPos="5.10" departSpeed="0.00" departDelay="0.00" arrival="425.00" arrivalLane="-48768115#4_0" arrivalPos="98.85" arrivalSpeed="12.51" duration="25.00" routeLength="268.64" waitingTime="0.00" waitingCount="0" stopTime="0.00" timeLoss="7.80" rerouteNo="1" devices="tripinfo_400 routing_400" vType="DEFAULT_VEHTYPE" speedFactor="0.98" vaporized=""/>
    <tripinfo id="350" depart="350.00" departLane="518978931#1_0" departPos="5.10" departSpeed="0.00" departDelay="0.00" arrival="431.00" arrivalLane="35928055#5_0" arrivalPos="172.05" arrivalSpeed="27.58" duration="81.00" routeLength="983.20" waitingTime="13.00" waitingCount="3" stopTime="0.00" timeLoss="44.41" rerouteNo="1" devices="tripinfo_350 routing_350" vType="DEFAULT_VEHTYPE" speedFactor="1.02" vaporized=""/>
    <tripinfo id="375" depart="375.00" departLane="35928055#4_0" departPos="5.10" departSpeed="0.00" departDelay="0.00" arrival="442.00" arrivalLane="-48742258#0_0" arrivalPos="91.11" arrivalSpeed="10.51" duration="67.00" routeLength="571.01" waitingTime="0.00" waitingCount="0" stopTime="0.00" timeLoss="15.46" rerouteNo="1" devices="tripinfo_375 routing_375" vType="DEFAULT_VEHTYPE" speedFactor="0.81" vaporized=""/>
    <tripinfo id="94" depart="94.00" departLane="518977863#1_0" departPos="5.10" departSpeed="0.00" departDelay="0.00" arrival="444.00" arrivalLane="304481579_0" arrivalPos="102.56" arrivalSpeed="14.15" duration="350.00" routeLength="590.06" waitingTime="301.00" waitingCount="1" stopTime="0.00" timeLoss="315.59" rerouteNo="1" devices="tripinfo_94 routing_94" vType="DEFAULT_VEHTYPE" speedFactor="1.09" vaporized=""/>
    <tripinfo id="444" depart="444.00" departLane="1062105335#4_0" departPos="5.10" departSpeed="0.00" departDelay="0.00" arrival="459.00" arrivalLane="239206121#2_0" arrivalPos="36.84" arrivalSpeed="17.93" duration="15.00" routeLength="133.20" waitingTime="0.00" waitingCount="0" stopTime="0.00" timeLoss="8.32" rerouteNo="1" devices="tripinfo_444 routing_444" vType="DEFAULT_VEHTYPE" speedFactor="0.96" vaporized=""/>
    <tripinfo id="446" depart="446.00" departLane="-336846053#3_0" departPos="5.10" departSpeed="0.00" departDelay="0.00" arrival="486.00" arrivalLane="518978931#1_0" arrivalPos="102.65" arrivalSpeed="22.07" duration="40.00" routeLength="479.95" waitingTime="0.00" waitingCount="0" stopTime="0.00" timeLoss="8.67" rerouteNo="1" devices="tripinfo_446 routing_446" vType="DEFAULT_VEHTYPE" speedFactor="1.02" vaporized=""/>
    <tripinfo id="445" depart="445.00" departLane="245932664_0" departPos="5.10" departSpeed="0.00" departDelay="0.00" arrival="492.00" arrivalLane="-48768115#4_0" arrivalPos="98.85" arrivalSpeed="12.62" duration="47.00" routeLength="430.23" waitingTime="0.00" waitingCount="0" stopTime="0.00" timeLoss="11.66" rerouteNo="1" devices="tripinfo_445 routing_445" vType="DEFAULT_VEHTYPE" speedFactor="0.97" vaporized=""/>
    <tripinfo id="434" depart="434.00" departLane="-30688296#9_0" departPos="5.10" departSpeed="0.00" departDelay="0.00" arrival="493.00" arrivalLane="-48742258#0_0" arrivalPos="91.11" arrivalSpeed="9.39" duration="59.00" routeLength="497.41" waitingTime="1.00" waitingCount="1" stopTime="0.00" timeLoss="19.39" rerouteNo="1" devices="tripinfo_434 routing_434" vType="DEFAULT_VEHTYPE" speedFactor="0.76" vaporized=""/>
    <tripinfo id="471" depart="472.00" departLane="-48768115#4_0" departPos="5.10" departSpeed="0.00" departDelay="1.00" arrival="510.00" arrivalLane="48768098#1_0" arrivalPos="30.37" arrivalSpeed="11.12" duration="38.00" routeLength="258.17" waitingTime="5.00" waitingCount="1" stopTime="0.00" timeLoss="17.00" rerouteNo="1" devices="tripinfo_471 routing_471" vType="DEFAULT_VEHTYPE" speedFactor="0.94" vaporized=""/>
    <tripinfo id="515" depart="515.00" departLane="48742261#2_0" departPos="5.10" departSpeed="0.00" departDelay="0.00" arrival="526.00" arrivalLane="48742261#2_0" arrivalPos="94.82" arrivalSpeed="12.39" duration="11.00" routeLength="89.72" waitingTime="0.00" waitingCount="0" stopTime="0.00" timeLoss="3.03" rerouteNo="1" devices="tripinfo_515 routing_515" vType="DEFAULT_VEHTYPE" speedFactor="0.91" vaporized=""/>
    <tripinfo id="481" depart="481.00" departLane="245932670_0" departPos="5.10" departSpeed="0.00" departDelay="0.00" arrival="536.00" arrivalLane="-48768115#4_0" arrivalPos="98.85" arrivalSpeed="14.35" duration="55.00" routeLength="535.37" waitingTime="0.00" waitingCount="0" stopTime="0.00" timeLoss="15.43" rerouteNo="1" devices="tripinfo_481 routing_481" vType="DEFAULT_VEHTYPE" speedFactor="1.04" vaporized=""/>
    <tripinfo id="368" depart="368.00" departLane="-336846053#4_0" departPos="5.10" departSpeed="0.00" departDelay="0.00" arrival="540.00" arrivalLane="48742261#3_0" arrivalPos="48.47" arrivalSpeed="14.63" duration="172.00" routeLength="1407.53" waitingTime="63.00" waitingCount="3" stopTime="0.00" timeLoss="105.38" rerouteNo="1" devices="tripinfo_368 routing_368" vType="DEFAULT_VEHTYPE" speedFactor="1.14" vaporized=""/>
    <tripinfo id="220" depart="220.00" departLane="518980185#1_0" departPos="5.10" departSpeed="0.00" departDelay="0.00" arrival="552.00" arrivalLane="48740803#20_0" arrivalPos="49.85" arrivalSpeed="27.00" duration="332.00" routeLength="340.74" waitingTime="301.00" waitingCount="1" stopTime="0.00" timeLoss="313.96" rerouteNo="1" devices="tripinfo_220 routing_220" vType="DEFAULT_VEHTYPE" speedFactor="1.00" vaporized=""/>
    <tripinfo id="48" depart="48.00" departLane="304544028#5_0" departPos="5.10" departSpeed="0.00" departDelay="0.00" arrival="628.00" arrivalLane="-30688296#3_0" arrivalPos="42.39" arrivalSpeed="18.44" duration="580.00" routeLength="386.15" waitingTime="523.00" waitingCount="2" stopTime="0.00" timeLoss="533.58" rerouteNo="1" devices="tripinfo_48 routing_48" vType="DEFAULT_VEHTYPE" speedFactor="0.88" vaporized=""/>
    <tripinfo id="613" depart="613.00" departLane="48768115#4_0" departPos="5.10" departSpeed="0.00" departDelay="0.00" arrival="637.00" arrivalLane="-48768115#4_0" arrivalPos="98.85" arrivalSpeed="13.21" duration="24.00" routeLength="197.27" waitingTime="0.00" waitingCount="0" stopTime="0.00" timeLoss="7.34" rerouteNo="0" devices="tripinfo_613 routing_613" vType="DEFAULT_VEHTYPE" speedFactor="0.96" vaporized=""/>
    <tripinfo id="605" depart="605.00" departLane="239206121#1_0" departPos="5.10" departSpeed="0.00" departDelay="0.00" arrival="654.00" arrivalLane="48768098#0_0" arrivalPos="32.55" arrivalSpeed="11.61" duration="49.00" routeLength="486.82" waitingTime="0.00" waitingCount="0" stopTime="0.00" timeLoss="14.34" rerouteNo="1" devices="tripinfo_605 routing_605" vType="DEFAULT_VEHTYPE" speedFactor="0.92" vaporized=""/>
    <tripinfo id="22" depart="22.00" departLane="30620450#2_0" departPos="5.10" departSpeed="0.00" departDelay="0.00" arrival="669.00" arrivalLane="255431335#1_0" arrivalPos="108.40" arrivalSpeed="25.83" duration="647.00" routeLength="614.60" waitingTime="602.00" waitingCount="1" stopTime="0.00" timeLoss="616.87" rerouteNo="1" devices="tripinfo_22 routing_22" vType="DEFAULT_VEHTYPE" speedFactor="0.97" vaporized=""/>
    <tripinfo id="184" depart="184.00" departLane="48742279#3_0" departPos="5.10" departSpeed="0.00" departDelay="0.00" arrival="672.00" arrivalLane="506322871#1_0" arrivalPos="77.14" arrivalSpeed="18.69" duration="488.00" routeLength="756.88" waitingTime="422.00" waitingCount="2" stopTime="0.00" timeLoss="443.31" rerouteNo="1" devices="tripinfo_184 routing_184" vType="DEFAULT_VEHTYPE" speedFactor="0.94" vaporized=""/>
    <tripinfo id="15" depart="15.00" departLane="48742278#4_0" departPos="5.10" departSpeed="0.00" departDelay="0.00" arrival="681.00" arrivalLane="30688296#1_0" arrivalPos="127.23" arrivalSpeed="20.51" duration="666.00" routeLength="960.55" waitingTime="579.00" waitingCount="2" stopTime="0.00" timeLoss="606.35" rerouteNo="1" devices="tripinfo_15 routing_15" vType="DEFAULT_VEHTYPE" speedFactor="0.93" vaporized=""/>
    <tripinfo id="146" depart="146.00" departLane="48742278#3_0" departPos="5.10" departSpeed="0.00" departDelay="0.00" arrival="681.00" arrivalLane="304544028#6_0" arrivalPos="29.21" arrivalSpeed="0.00" duration="535.00" routeLength="64.66" waitingTime="494.00" waitingCount="2" stopTime="0.00" timeLoss="502.20" rerouteNo="0" devices="tripinfo_146 routing_146" vType="DEFAULT_VEHTYPE" speedFactor="0.89" vaporized="teleport"/>
    <tripinfo id="311" depart="311.00" departLane="30688296#1_0" departPos="5.10" departSpeed="0.00" departDelay="0.00" arrival="681.00" arrivalLane="48742258#3_0" arrivalPos="43.29" arrivalSpeed="0.00" duration="370.00" routeLength="297.67" waitingTime="301.00" waitingCount="1" stopTime="0.00" timeLoss="312.90" rerouteNo="1" devices="tripinfo_311 routing_311" vType="DEFAULT_VEHTYPE" speedFactor="1.09" vaporized="teleport"/>
    <tripinfo id="95" depart="95.00" departLane="-48768115#4_0" departPos="5.10" departSpeed="0.00" departDelay="0.00" arrival="688.00" arrivalLane="-48768087#1_0" arrivalPos="103.42" arrivalSpeed="14.49" duration="593.00" routeLength="829.55" waitingTime="516.00" waitingCount="3" stopTime="0.00" timeLoss="543.68" rerouteNo="1" devices="tripinfo_95 routing_95" vType="DEFAULT_VEHTYPE" speedFactor="1.06" vaporized=""/>
    <tripinfo id="297" depart="297.00" departLane="-336846053#0_0" departPos="5.10" departSpeed="0.00" departDelay="0.00" arrival="688.00" arrivalLane="48742273#1_0" arrivalPos="203.82" arrivalSpeed="27.29" duration="391.00" routeLength="1113.29" waitingTime="310.00" waitingCount="2" stopTime="0.00" timeLoss="338.72" rerouteNo="1" devices="tripinfo_297 routing_297" vType="DEFAULT_VEHTYPE" speedFactor="0.98" vaporized=""/>
    <tripinfo id="216" depart="216.00" departLane="518980185#1_0" departPos="5.10" departSpeed="0.00" departDelay="0.00" arrival="689.00" arrivalLane="48740801#3_0" arrivalPos="45.13" arrivalSpeed="26.30" duration="473.00" routeLength="550.32" waitingTime="431.00" waitingCount="2" stopTime="0.00" timeLoss="449.15" rerouteNo="1" devices="tripinfo_216 routing_216" vType="DEFAULT_VEHTYPE" speedFactor="0.97" vaporized=""/>
    <tripinfo id="419" depart="419.00" departLane="-336846053#0_0" departPos="5.10" departSpeed="0.00" departDelay="0.00" arrival="692.00" arrivalLane="35928055#2_0" arrivalPos="96.97" arrivalSpeed="25.62" duration="273.00" routeLength="911.10" waitingTime="188.00" waitingCount="3" stopTime="0.00" timeLoss="231.35" rerouteNo="1" devices="tripinfo_419 routing_419" vType="DEFAULT_VEHTYPE" speedFactor="1.03" vaporized=""/>
    <tripinfo id="41" depart="41.00" departLane="518978935#1_0" departPos="5.10" departSpeed="0.00" departDelay="0.00" arrival="693.00" arrivalLane="255431335#0_0" arrivalPos="25.82" arrivalSpeed="12.10" duration="652.00" routeLength="747.32" waitingTime="602.00" waitingCount="1" stopTime="0.00" timeLoss="616.59" rerouteNo="1" devices="tripinfo_41 routing_41" vType="DEFAULT_VEHTYPE" speedFactor="0.96" vaporized=""/>
    <tripinfo id="342" depart="342.00" departLane="-48768115#4_0" departPos="5.10" departSpeed="0.00" departDelay="0.00" arrival="698.00" arrivalLane="35928055#5_0" arrivalPos="172.05" arrivalSpeed="27.30" duration="356.00" routeLength="1036.11" waitingTime="273.00" waitingCount="4" stopTime="0.00" timeLoss="308.37" rerouteNo="1" devices="tripinfo_342 routing_342" vType="DEFAULT_VEHTYPE" speedFactor="1.00" vaporized=""/>
    <tripinfo id="310" depart="310.00" departLane="1061707677#1_0" departPos="5.10" departSpeed="0.00" departDelay="0.00" arrival="710.00" arrivalLane="35928055#2_0" arrivalPos="96.97" arrivalSpeed="25.08" duration="400.00" routeLength="234.90" waitingTime="379.00" waitingCount="2" stopTime="0.00" timeLoss="388.51" rerouteNo="1" devices="tripinfo_310 routing_310" vType="DEFAULT_VEHTYPE" speedFactor="0.90" vaporized=""/>
    <tripinfo id="398" depart="398.00" departLane="336846053#3_0" departPos="5.10" departSpeed="0.00" departDelay="0.00" arrival="711.00" arrivalLane="48742261#2_0" arrivalPos="94.82" arrivalSpeed="17.02" duration="313.00" routeLength="1428.33" waitingTime="192.00" waitingCount="3" stopTime="0.00" timeLoss="251.89" rerouteNo="1" devices="tripinfo_398 routing_398" vType="DEFAULT_VEHTYPE" speedFactor="1.26" vaporized=""/>
    <tripinfo id="395" depart="691.00" departLane="1061707677#1_0" departPos="5.10" departSpeed="0.00" departDelay="296.00" arrival="712.00" arrivalLane="48742273#1_0" arrivalPos="203.82" arrivalSpeed="30.96" duration="21.00" routeLength="432.22" waitingTime="0.00" waitingCount="0" stopTime="0.00" timeLoss="7.14" rerouteNo="1" devices="tripinfo_395 routing_395" vType="DEFAULT_VEHTYPE" speedFactor="1.14" vaporized=""/>
    <tripinfo id="40" depart="40.00" departLane="35928058#1_0" departPos="5.10" departSpeed="0.00" departDelay="0.00" arrival="718.00" arrivalLane="518980182#10_0" arrivalPos="128.87" arrivalSpeed="21.63" duration="678.00" routeLength="1128.45" waitingTime="602.00" waitingCount="2" stopTime="0.00" timeLoss="632.32" rerouteNo="1" devices="tripinfo_40 routing_40" vType="DEFAULT_VEHTYPE" speedFactor="1.03" vaporized=""/>
    <tripinfo id="658" depart="658.00" departLane="-336846053#3_0" departPos="5.10" departSpeed="0.00" departDelay="0.00" arrival="719.00" arrivalLane="48740803#9_0" arrivalPos="33.23" arrivalSpeed="12.86" duration="61.00" routeLength="726.98" waitingTime="0.00" waitingCount="0" stopTime="0.00" timeLoss="14.28" rerouteNo="1" devices="tripinfo_658 routing_658" vType="DEFAULT_VEHTYPE" speedFactor="0.88" vaporized=""/>