<?xml version="1.0" encoding="UTF-8"?>

<!-- generated on 2025-05-27 07:24:40 by Eclipse SUMO GUI Version 1.23.1
<sumoConfiguration xmlns:xsi="http://www.w3.org/2001/XMLSchema-instance" xsi:noNamespaceSchemaLocation="http://sumo.dlr.de/xsd/sumoConfiguration.xsd">

    <input>
        <net-file value="test.net.xml"/>
        <route-files value="map.rou.xml"/>
        <additional-files value="map.poly.xml"/>
    </input>

    <output>
        <tripinfo-output value="tripinfo_qlearning.xml"/>
    </output>

    <time>
        <begin value="0"/>
        <end value="10000"/>
    </time>

    <traci_server>
        <remote-port value="52956"/>
    </traci_server>

</sumoConfiguration>
-->

<tripinfos xmlns:xsi="http://www.w3.org/2001/XMLSchema-instance" xsi:noNamespaceSchemaLocation="http://sumo.dlr.de/xsd/tripinfo_file.xsd">
    <tripinfo id="passenger_sedan_2" depart="2.00" departLane="518974807#4_0" departPos="2.37" departSpeed="0.00" departDelay="0.00" arrival="14.00" arrivalLane="1064294858#2_0" arrivalPos="9.24" arrivalSpeed="23.62" duration="12.00" routeLength="129.10" waitingTime="0.00" waitingCount="0" stopTime="0.00" timeLoss="6.36" rerouteNo="0" devices="tripinfo_passenger_sedan_2" vType="passenger_sedan" speedFactor="0.94" vaporized=""/>
    <tripinfo id="emergency_police_26" depart="26.00" departLane="306275221#0_0" departPos="0.20" departSpeed="0.00" departDelay="0.00" arrival="41.00" arrivalLane="1068234512#2_0" arrivalPos="73.79" arrivalSpeed="22.20" duration="15.00" routeLength="168.26" waitingTime="0.00" waitingCount="0" stopTime="0.00" timeLoss="7.65" rerouteNo="0" devices="tripinfo_emergency_police_26" vType="emergency_police" speedFactor="1.50" vaporized=""/>
    <tripinfo id="truck_regular_6" depart="6.00" departLane="131473120#2_0" departPos="7.60" departSpeed="0.00" departDelay="0.00" arrival="43.00" arrivalLane="-131473132#0_0" arrivalPos="92.27" arrivalSpeed="13.87" duration="37.00" routeLength="255.72" waitingTime="0.00" waitingCount="0" stopTime="0.00" timeLoss="16.10" rerouteNo="0" devices="tripinfo_truck_regular_6" vType="truck_regular" speedFactor="1.02" vaporized=""/>
    <tripinfo id="passenger_suv_33" depart="33.00" departLane="1068234506#1_0" departPos="0.20" departSpeed="0.00" departDelay="0.00" arrival="44.00" arrivalLane="413949759_1" arrivalPos="0.20" arrivalSpeed="9.68" duration="11.00" routeLength="31.18" waitingTime="2.00" waitingCount="1" stopTime="0.00" timeLoss="9.48" rerouteNo="0" devices="tripinfo_passenger_suv_33" vType="passenger_suv" speedFactor="0.94" vaporized=""/>
    <tripinfo id="passenger_suv_30" depart="30.00" departLane="518974820#3_0" departPos="3.42" departSpeed="0.00" departDelay="0.00" arrival="50.00" arrivalLane="413955654#0_0" arrivalPos="0.20" arrivalSpeed="10.63" duration="20.00" routeLength="33.84" waitingTime="10.00" waitingCount="1" stopTime="0.00" timeLoss="17.31" rerouteNo="0" devices="tripinfo_passenger_suv_30" vType="passenger_suv" speedFactor="0.93" vaporized=""/>
    <tripinfo id="passenger_suv_12" depart="12.00" departLane="668037880#2_0" departPos="4.48" departSpeed="0.00" departDelay="0.00" arrival="53.00" arrivalLane="306275221#0_0" arrivalPos="0.20" arrivalSpeed="3.84" duration="41.00" routeLength="65.80" waitingTime="25.00" waitingCount="1" stopTime="0.00" timeLoss="37.35" rerouteNo="0" devices="tripinfo_passenger_suv_12" vType="passenger_suv" speedFactor="0.83" vaporized=""/>
    <tripinfo id="passenger_suv_4" depart="4.00" departLane="668037880#0_0" departPos="4.80" departSpeed="0.00" departDelay="0.00" arrival="65.00" arrivalLane="-763092075#0_0" arrivalPos="0.20" arrivalSpeed="11.78" duration="61.00" routeLength="564.78" waitingTime="16.00" waitingCount="1" stopTime="0.00" timeLoss="36.45" rerouteNo="0" devices="tripinfo_passenger_suv_4" vType="passenger_suv" speedFactor="1.01" vaporized=""/>
    <tripinfo id="passenger_sedan_1" depart="1.00" departLane="1068234514#1_0" departPos="0.20" departSpeed="0.00" departDelay="0.00" arrival="74.00" arrivalLane="1068234512#2_2" arrivalPos="73.79" arrivalSpeed="22.91" duration="73.00" routeLength="154.15" waitingTime="58.00" waitingCount="1" stopTime="0.00" timeLoss="66.09" rerouteNo="0" devices="tripinfo_passenger_sedan_1" vType="passenger_sedan" speedFactor="1.06" vaporized=""/>
    <tripinfo id="emergency_firebrigade_42" depart="42.00" departLane="668037880#0_0" departPos="10.10" departSpeed="0.00" departDelay="0.00" arrival="80.00" arrivalLane="413949757#3_0" arrivalPos="7.79" arrivalSpeed="38.89" duration="38.00" routeLength="769.29" waitingTime="0.00" waitingCount="0" stopTime="0.00" timeLoss="17.69" rerouteNo="0" devices="tripinfo_emergency_firebrigade_42" vType="emergency_firebrigade" speedFactor="1.40" vaporized=""/>
    <tripinfo id="passenger_sedan_27" depart="27.00" departLane="518974807#0_0" departPos="4.40" departSpeed="0.00" departDelay="0.00" arrival="94.00" arrivalLane="467228962_0" arrivalPos="0.20" arrivalSpeed="10.07" duration="67.00" routeLength="410.73" waitingTime="37.00" waitingCount="1" stopTime="0.00" timeLoss="51.77" rerouteNo="0" devices="tripinfo_passenger_sedan_27" vType="passenger_sedan" speedFactor="0.99" vaporized=""/>
    <tripinfo id="passenger_hatchback_79" depart="79.00" departLane="1068234514#1_0" departPos="0.20" departSpeed="0.00" departDelay="0.00" arrival="99.00" arrivalLane="306275221#1_0" arrivalPos="39.82" arrivalSpeed="14.24" duration="20.00" routeLength="109.16" waitingTime="3.00" waitingCount="1" stopTime="0.00" timeLoss="13.60" rerouteNo="0" devices="tripinfo_passenger_hatchback_79" vType="passenger_hatchback" speedFactor="1.18" vaporized=""/>
    <tripinfo id="passenger_suv_16" depart="16.00" departLane="1068234506#1_0" departPos="0.20" departSpeed="0.00" departDelay="0.00" arrival="102.00" arrivalLane="306275221#1_0" arrivalPos="39.82" arrivalSpeed="11.97" duration="86.00" routeLength="110.97" waitingTime="63.00" waitingCount="3" stopTime="0.00" timeLoss="77.74" rerouteNo="0" devices="tripinfo_passenger_suv_16" vType="passenger_suv" speedFactor="0.94" vaporized=""/>
    <tripinfo id="passenger_sedan_48" depart="48.00" departLane="1064294853_0" departPos="0.20" departSpeed="0.00" departDelay="0.00" arrival="105.00" arrivalLane="1068234512#3_0" arrivalPos="7.98" arrivalSpeed="22.74" duration="57.00" routeLength="166.97" waitingTime="39.00" waitingCount="1" stopTime="0.00" timeLoss="49.91" rerouteNo="0" devices="tripinfo_passenger_sedan_48" vType="passenger_sedan" speedFactor="0.89" vaporized=""/>
    <tripinfo id="truck_regular_36" depart="36.00" departLane="1068234506#0_0" departPos="7.60" departSpeed="0.00" departDelay="0.00" arrival="110.00" arrivalLane="306275221#1_0" arrivalPos="39.82" arrivalSpeed="10.83" duration="74.00" routeLength="180.31" waitingTime="44.00" waitingCount="1" stopTime="0.00" timeLoss="64.04" rerouteNo="0" devices="tripinfo_truck_regular_36" vType="truck_regular" speedFactor="1.08" vaporized=""/>
    <tripinfo id="passenger_hatchback_85" depart="85.00" departLane="182973465_0" departPos="0.20" departSpeed="0.00" departDelay="0.00" arrival="120.00" arrivalLane="1068234512#0_2" arrivalPos="0.20" arrivalSpeed="10.34" duration="35.00" routeLength="26.88" waitingTime="30.00" waitingCount="1" stopTime="0.00" timeLoss="33.08" rerouteNo="0" devices="tripinfo_passenger_hatchback_85" vType="passenger_hatchback" speedFactor="1.03" vaporized=""/>
    <tripinfo id="passenger_suv_112" depart="112.00" departLane="518974807#1_0" departPos="4.80" departSpeed="0.00" departDelay="0.00" arrival="129.00" arrivalLane="518974807#3_0" arrivalPos="35.06" arrivalSpeed="22.71" duration="17.00" routeLength="249.10" waitingTime="0.00" waitingCount="0" stopTime="0.00" timeLoss="5.73" rerouteNo="0" devices="tripinfo_passenger_suv_112" vType="passenger_suv" speedFactor="0.85" vaporized=""/>
    <tripinfo id="passenger_sedan_60" depart="60.00" departLane="1068234509#0_0" departPos="4.40" departSpeed="0.00" departDelay="0.00" arrival="140.00" arrivalLane="413949757#1_1" arrivalPos="16.09" arrivalSpeed="12.51" duration="80.00" routeLength="114.81" waitingTime="61.00" waitingCount="2" stopTime="0.00" timeLoss="74.25" rerouteNo="0" devices="tripinfo_passenger_sedan_60" vType="passenger_sedan" speedFactor="0.93" vaporized=""/>
    <tripinfo id="passenger_sedan_90" depart="90.00" departLane="518974814#0_0" departPos="4.40" departSpeed="0.00" departDelay="0.00" arrival="143.00" arrivalLane="413949757#3_0" arrivalPos="7.79" arrivalSpeed="28.18" duration="53.00" routeLength="836.91" waitingTime="1.00" waitingCount="1" stopTime="0.00" timeLoss="21.59" rerouteNo="0" devices="tripinfo_passenger_sedan_90" vType="passenger_sedan" speedFactor="1.04" vaporized=""/>
    <tripinfo id="passenger_suv_81" depart="81.00" departLane="518974807#2_0" departPos="4.80" departSpeed="0.00" departDelay="0.00" arrival="153.00" arrivalLane="-131473132#1_0" arrivalPos="0.20" arrivalSpeed="4.87" duration="72.00" routeLength="277.08" waitingTime="36.00" waitingCount="1" stopTime="0.00" timeLoss="59.24" rerouteNo="0" devices="tripinfo_passenger_suv_81" vType="passenger_suv" speedFactor="0.90" vaporized=""/>
    <tripinfo id="truck_regular_146" depart="150.00" departLane="518974807#3_0" departPos="7.60" departSpeed="0.00" departDelay="4.00" arrival="158.00" arrivalLane="518974807#4_1" arrivalPos="2.37" arrivalSpeed="7.92" duration="8.00" routeLength="35.50" waitingTime="0.00" waitingCount="0" stopTime="0.00" timeLoss="6.55" rerouteNo="0" devices="tripinfo_truck_regular_146" vType="truck_regular" speedFactor="0.94" vaporized=""/>
    <tripinfo id="passenger_sedan_71" depart="71.00" departLane="518974820#1_0" departPos="4.40" departSpeed="0.00" departDelay="0.00" arrival="160.00" arrivalLane="518974820#3_0" arrivalPos="3.42" arrivalSpeed="6.54" duration="89.00" routeLength="458.43" waitingTime="56.00" waitingCount="1" stopTime="0.00" timeLoss="72.45" rerouteNo="0" devices="tripinfo_passenger_sedan_71" vType="passenger_sedan" speedFactor="1.01" vaporized=""/>
    <tripinfo id="passenger_suv_148" depart="148.00" departLane="-763092075#0_0" departPos="0.20" departSpeed="0.00" departDelay="0.00" arrival="180.00" arrivalLane="306275221#3_0" arrivalPos="236.74" arrivalSpeed="12.45" duration="32.00" routeLength="300.63" waitingTime="0.00" waitingCount="0" stopTime="0.00" timeLoss="6.05" rerouteNo="0" devices="tripinfo_passenger_suv_148" vType="passenger_suv" speedFactor="0.91" vaporized=""/>
    <tripinfo id="truck_regular_122" depart="122.00" departLane="518974807#0_0" departPos="7.60" departSpeed="0.00" departDelay="0.00" arrival="193.00" arrivalLane="413955654#1_0" arrivalPos="84.54" arrivalSpeed="14.57" duration="71.00" routeLength="487.92" waitingTime="25.00" waitingCount="1" stopTime="0.00" timeLoss="52.31" rerouteNo="0" devices="tripinfo_truck_regular_122" vType="truck_regular" speedFactor="1.00" vaporized=""/>
    <tripinfo id="passenger_suv_5" depart="5.00" departLane="518974807#4_0" departPos="2.37" departSpeed="0.00" departDelay="0.00" arrival="198.00" arrivalLane="413949757#2_0" arrivalPos="283.23" arrivalSpeed="29.71" duration="193.00" routeLength="675.22" waitingTime="124.00" waitingCount="3" stopTime="0.00" timeLoss="160.66" rerouteNo="0" devices="tripinfo_passenger_suv_5" vType="passenger_suv" speedFactor="1.08" vaporized=""/>
    <tripinfo id="bus_coach_14" depart="14.00" departLane="1064294858#1_0" departPos="14.10" departSpeed="0.00" departDelay="0.00" arrival="201.00" arrivalLane="1068234512#3_1" arrivalPos="7.98" arrivalSpeed="15.40" duration="187.00" routeLength="441.67" waitingTime="112.00" waitingCount="3" stopTime="0.00" timeLoss="161.26" rerouteNo="0" devices="tripinfo_bus_coach_14" vType="bus_coach" speedFactor="1.02" vaporized=""/>
    <tripinfo id="passenger_hatchback_15" depart="15.00" departLane="131473120#2_0" departPos="4.10" departSpeed="0.00" departDelay="0.00" arrival="221.00" arrivalLane="413949759_0" arrivalPos="0.20" arrivalSpeed="9.47" duration="206.00" routeLength="203.14" waitingTime="159.00" waitingCount="5" stopTime="0.00" timeLoss="188.82" rerouteNo="0" devices="tripinfo_passenger_hatchback_15" vType="passenger_hatchback" speedFactor="0.89" vaporized=""/>
    <tripinfo id="passenger_sedan_20" depart="20.00" departLane="131473132#0_0" departPos="4.40" departSpeed="0.00" departDelay="0.00" arrival="221.00" arrivalLane="1064294853_0" arrivalPos="0.20" arrivalSpeed="6.51" duration="201.00" routeLength="317.03" waitingTime="137.00" waitingCount="4" stopTime="0.00" timeLoss="176.93" rerouteNo="0" devices="tripinfo_passenger_sedan_20" vType="passenger_sedan" speedFactor="1.03" vaporized=""/>
    <tripinfo id="bus_coach_25" depart="25.00" departLane="518974820#1_0" departPos="14.10" departSpeed="0.00" departDelay="0.00" arrival="224.00" arrivalLane="413949757#3_0" arrivalPos="7.79" arrivalSpeed="22.92" duration="199.00" routeLength="808.19" waitingTime="118.00" waitingCount="3" stopTime="0.00" timeLoss="169.07" rerouteNo="0" devices="tripinfo_bus_coach_25" vType="bus_coach" speedFactor="1.06" vaporized=""/>
    <tripinfo id="bus_city_110" depart="134.00" departLane="1064294862#0_0" departPos="1.23" departSpeed="0.00" departDelay="24.00" arrival="227.00" arrivalLane="306275221#3_0" arrivalPos="236.74" arrivalSpeed="13.76" duration="93.00" routeLength="1001.53" waitingTime="0.00" waitingCount="0" stopTime="0.00" timeLoss="40.31" rerouteNo="0" devices="tripinfo_bus_city_110" vType="bus_city" speedFactor="1.00" vaporized=""/>
    <tripinfo id="passenger_hatchback_177" depart="177.00" departLane="182973465_0" departPos="0.20" departSpeed="0.00" departDelay="0.00" arrival="229.00" arrivalLane="-763092075#0_0" arrivalPos="0.20" arrivalSpeed="12.15" duration="52.00" routeLength="135.33" waitingTime="28.00" waitingCount="1" stopTime="0.00" timeLoss="39.37" rerouteNo="0" devices="tripinfo_passenger_hatchback_177" vType="passenger_hatchback" speedFactor="0.98" vaporized=""/>
    <tripinfo id="emergency_police_59" depart="97.00" departLane="518974807#4_0" departPos="2.37" departSpeed="0.00" departDelay="38.00" arrival="230.00" arrivalLane="-131473132#1_0" arrivalPos="0.20" arrivalSpeed="8.79" duration="133.00" routeLength="112.86" waitingTime="105.00" waitingCount="3" stopTime="0.00" timeLoss="129.18" rerouteNo="0" devices="tripinfo_emergency_police_59" vType="emergency_police" speedFactor="1.50" vaporized=""/>
    <tripinfo id="bus_coach_225" depart="225.00" departLane="131473132#0_0" departPos="14.10" departSpeed="0.00" departDelay="0.00" arrival="274.00" arrivalLane="1064294858#4_0" arrivalPos="6.61" arrivalSpeed="3.32" duration="49.00" routeLength="327.67" waitingTime="6.00" waitingCount="1" stopTime="0.00" timeLoss="32.22" rerouteNo="0" devices="tripinfo_bus_coach_225" vType="bus_coach" speedFactor="0.96" vaporized=""/>
    <tripinfo id="passenger_hatchback_141" depart="141.00" departLane="1068234506#0_0" departPos="4.10" departSpeed="0.00" departDelay="0.00" arrival="276.00" arrivalLane="1068234512#1_2" arrivalPos="32.70" arrivalSpeed="16.21" duration="135.00" routeLength="156.25" waitingTime="102.00" waitingCount="4" stopTime="0.00" timeLoss="128.22" rerouteNo="0" devices="tripinfo_passenger_hatchback_141" vType="passenger_hatchback" speedFactor="0.99" vaporized=""/>
    <tripinfo id="passenger_suv_157" depart="197.00" departLane="302219179_0" departPos="0.20" departSpeed="0.00" departDelay="40.00" arrival="282.00" arrivalLane="1068234512#2_3" arrivalPos="73.79" arrivalSpeed="21.41" duration="85.00" routeLength="150.64" waitingTime="68.00" waitingCount="2" stopTime="0.00" timeLoss="78.18" rerouteNo="0" devices="tripinfo_passenger_suv_157" vType="passenger_suv" speedFactor="1.02" vaporized=""/>
    <tripinfo id="passenger_sedan_286" depart="286.00" departLane="182973465_0" departPos="0.20" departSpeed="0.00" departDelay="0.00" arrival="290.00" arrivalLane="1064294862#0_1" arrivalPos="1.23" arrivalSpeed="8.14" duration="4.00" routeLength="21.30" waitingTime="0.00" waitingCount="0" stopTime="0.00" timeLoss="3.16" rerouteNo="0" devices="tripinfo_passenger_sedan_286" vType="passenger_sedan" speedFactor="0.92" vaporized=""/>
    <tripinfo id="passenger_suv_31" depart="38.00" departLane="-131473132#1_0" departPos="0.20" departSpeed="0.00" departDelay="7.00" arrival="310.00" arrivalLane="1064294862#0_0" arrivalPos="1.23" arrivalSpeed="4.74" duration="272.00" routeLength="228.11" waitingTime="213.00" waitingCount="4" stopTime="0.00" timeLoss="251.37" rerouteNo="0" devices="tripinfo_passenger_suv_31" vType="passenger_suv" speedFactor="0.88" vaporized=""/>
    <tripinfo id="passenger_sedan_17" depart="17.00" departLane="131473120#1_0" departPos="4.40" departSpeed="0.00" departDelay="0.00" arrival="311.00" arrivalLane="1064294858#0_0" arrivalPos="0.23" arrivalSpeed="5.83" duration="294.00" routeLength="244.80" waitingTime="223.00" waitingCount="6" stopTime="0.00" timeLoss="270.71" rerouteNo="0" devices="tripinfo_passenger_sedan_17" vType="passenger_sedan" speedFactor="0.86" vaporized=""/>
    <tripinfo id="passenger_hatchback_254" depart="254.00" departLane="1068234506#0_0" departPos="4.10" departSpeed="0.00" departDelay="0.00" arrival="321.00" arrivalLane="1064294858#0_1" arrivalPos="0.23" arrivalSpeed="9.09" duration="67.00" routeLength="91.23" waitingTime="43.00" waitingCount="3" stopTime="0.00" timeLoss="62.81" rerouteNo="0" devices="tripinfo_passenger_hatchback_254" vType="passenger_hatchback" speedFactor="1.01" vaporized=""/>
    <tripinfo id="passenger_sedan_243" depart="243.00" departLane="182973465_0" departPos="0.20" departSpeed="0.00" departDelay="0.00" arrival="323.00" arrivalLane="50823682_0" arrivalPos="76.00" arrivalSpeed="12.92" duration="80.00" routeLength="198.42" waitingTime="53.00" waitingCount="2" stopTime="0.00" timeLoss="63.25" rerouteNo="0" devices="tripinfo_passenger_sedan_243" vType="passenger_sedan" speedFactor="0.96" vaporized=""/>
    <tripinfo id="bus_coach_328" depart="328.00" departLane="413949757#4_0" departPos="8.63" departSpeed="0.00" departDelay="0.00" arrival="344.00" arrivalLane="413949757#6_0" arrivalPos="10.31" arrivalSpeed="13.07" duration="16.00" routeLength="96.04" waitingTime="0.00" waitingCount="0" stopTime="0.00" timeLoss="12.05" rerouteNo="0" devices="tripinfo_bus_coach_328" vType="bus_coach" speedFactor="0.98" vaporized=""/>
    <tripinfo id="truck_regular_349" depart="349.00" departLane="1068234506#0_0" departPos="7.60" departSpeed="0.00" departDelay="0.00" arrival="362.00" arrivalLane="1068234506#1_0" arrivalPos="0.20" arrivalSpeed="11.15" duration="13.00" routeLength="69.34" waitingTime="0.00" waitingCount="0" stopTime="0.00" timeLoss="10.01" rerouteNo="0" devices="tripinfo_truck_regular_349" vType="truck_regular" speedFactor="1.08" vaporized=""/>
    <tripinfo id="passenger_sedan_366" depart="366.00" departLane="413949759_0" departPos="0.20" departSpeed="0.00" departDelay="0.00" arrival="373.00" arrivalLane="306275221#0_0" arrivalPos="0.20" arrivalSpeed="6.13" duration="7.00" routeLength="36.81" waitingTime="0.00" waitingCount="0" stopTime="0.00" timeLoss="4.34" rerouteNo="0" devices="tripinfo_passenger_sedan_366" vType="passenger_sedan" speedFactor="1.14" vaporized=""/>
    <tripinfo id="passenger_hatchback_299" depart="299.00" departLane="1068234506#0_0" departPos="4.10" departSpeed="0.00" departDelay="0.00" arrival="380.00" arrivalLane="413949757#2_0" arrivalPos="283.23" arrivalSpeed="30.27" duration="81.00" routeLength="427.42" waitingTime="40.00" waitingCount="2" stopTime="0.00" timeLoss="65.80" rerouteNo="0" devices="tripinfo_passenger_hatchback_299" vType="passenger_hatchback" speedFactor="1.10" vaporized=""/>
    <tripinfo id="passenger_hatchback_245" depart="245.00" departLane="1068234506#0_0" departPos="4.10" departSpeed="0.00" departDelay="0.00" arrival="383.00" arrivalLane="413949757#6_0" arrivalPos="10.31" arrivalSpeed="25.15" duration="138.00" routeLength="540.43" waitingTime="91.00" waitingCount="3" stopTime="0.00" timeLoss="114.95" rerouteNo="0" devices="tripinfo_passenger_hatchback_245" vType="passenger_hatchback" speedFactor="0.95" vaporized=""/>
    <tripinfo id="passenger_suv_94" depart="160.00" departLane="302219187_0" departPos="0.20" departSpeed="0.00" departDelay="66.00" arrival="391.00" arrivalLane="1068234512#0_2" arrivalPos="0.20" arrivalSpeed="11.46" duration="231.00" routeLength="29.80" waitingTime="221.00" waitingCount="3" stopTime="0.00" timeLoss="228.72" rerouteNo="0" devices="tripinfo_passenger_suv_94" vType="passenger_suv" speedFactor="1.09" vaporized=""/>
    <tripinfo id="passenger_hatchback_49" depart="49.00" departLane="131473132#1_0" departPos="0.20" departSpeed="0.00" departDelay="0.00" arrival="401.00" arrivalLane="1064294858#0_0" arrivalPos="0.23" arrivalSpeed="5.81" duration="352.00" routeLength="226.62" waitingTime="287.00" waitingCount="5" stopTime="0.00" timeLoss="328.44" rerouteNo="0" devices="tripinfo_passenger_hatchback_49" vType="passenger_hatchback" speedFactor="0.83" vaporized=""/>
    <tripinfo id="passenger_sedan_402" depart="402.00" departLane="1068234506#0_0" departPos="4.40" departSpeed="0.00" departDelay="0.00" arrival="412.00" arrivalLane="1064294858#0_1" arrivalPos="0.23" arrivalSpeed="11.72" duration="10.00" routeLength="90.93" waitingTime="0.00" waitingCount="0" stopTime="0.00" timeLoss="5.86" rerouteNo="0" devices="tripinfo_passenger_sedan_402" vType="passenger_sedan" speedFactor="1.06" vaporized=""/>
    <tripinfo id="passenger_sedan_407" depart="407.00" departLane="413949757#1_0" departPos="4.40" departSpeed="0.00" departDelay="0.00" arrival="412.00" arrivalLane="306275221#0_0" arrivalPos="0.20" arrivalSpeed="6.99" duration="5.00" routeLength="18.41" waitingTime="0.00" waitingCount="0" stopTime="0.00" timeLoss="3.27" rerouteNo="0" devices="tripinfo_passenger_sedan_407" vType="passenger_sedan" speedFactor="1.18" vaporized=""/>
    <tripinfo id="passenger_suv_405" depart="405.00" departLane="1068234506#0_0" departPos="4.80" departSpeed="0.00" departDelay="0.00" arrival="414.00" arrivalLane="1068234506#1_0" arrivalPos="0.20" arrivalSpeed="15.33" duration="9.00" routeLength="72.14" waitingTime="0.00" waitingCount="0" stopTime="0.00" timeLoss="5.74" rerouteNo="0" devices="tripinfo_passenger_suv_405" vType="passenger_suv" speedFactor="1.12" vaporized=""/>
    <tripinfo id="passenger_suv_434" depart="434.00" departLane="518974807#2_0" departPos="4.80" departSpeed="0.00" departDelay="0.00" arrival="454.00" arrivalLane="518974807#4_1" arrivalPos="2.37" arrivalSpeed="10.34" duration="20.00" routeLength="164.22" waitingTime="0.00" waitingCount="0" stopTime="0.00" timeLoss="14.45" rerouteNo="0" devices="tripinfo_passenger_suv_434" vType="passenger_suv" speedFactor="1.08" vaporized=""/>
    <tripinfo id="passenger_sedan_19" depart="20.00" departLane="131473120#1_0" departPos="4.40" departSpeed="0.00" departDelay="1.00" arrival="461.00" arrivalLane="763092075#1_0" arrivalPos="25.48" arrivalSpeed="12.16" duration="441.00" routeLength="353.86" waitingTime="347.00" waitingCount="9" stopTime="0.00" timeLoss="418.40" rerouteNo="0" devices="tripinfo_passenger_sedan_19" vType="passenger_sedan" speedFactor="1.09" vaporized=""/>
    <tripinfo id="passenger_hatchback_132" depart="155.00" departLane="1068234514#1_0" departPos="0.20" departSpeed="0.00" departDelay="23.00" arrival="468.00" arrivalLane="1064294862#1_2" arrivalPos="308.17" arrivalSpeed="29.76" duration="313.00" routeLength="364.94" waitingTime="275.00" waitingCount="4" stopTime="0.00" timeLoss="299.66" rerouteNo="0" devices="tripinfo_passenger_hatchback_132" vType="passenger_hatchback" speedFactor="1.08" vaporized=""/>
    <tripinfo id="bus_coach_104" depart="104.00" departLane="131473132#1_0" departPos="0.20" departSpeed="0.00" departDelay="0.00" arrival="474.00" arrivalLane="131473120#2_0" arrivalPos="10.98" arrivalSpeed="3.09" duration="370.00" routeLength="96.63" waitingTime="347.00" waitingCount="2" stopTime="0.00" timeLoss="361.98" rerouteNo="0" devices="tripinfo_bus_coach_104" vType="bus_coach" speedFactor="0.94" vaporized=""/>
    <tripinfo id="passenger_hatchback_386" depart="401.00" departLane="1064294853_0" departPos="0.20" departSpeed="0.00" departDelay="15.00" arrival="474.00" arrivalLane="413949757#6_0" arrivalPos="10.31" arrivalSpeed="27.93" duration="73.00" routeLength="454.51" waitingTime="45.00" waitingCount="1" stopTime="0.00" timeLoss="56.05" rerouteNo="0" devices="tripinfo_passenger_hatchback_386" vType="passenger_hatchback" speedFactor="1.04" vaporized=""/>
    <tripinfo id="passenger_sedan_169" depart="169.00" departLane="1064294854_0" departPos="0.20" departSpeed="0.00" departDelay="0.00" arrival="492.00" arrivalLane="50823682_0" arrivalPos="76.00" arrivalSpeed="14.01" duration="323.00" routeLength="185.13" waitingTime="301.00" waitingCount="1" stopTime="0.00" timeLoss="306.78" rerouteNo="0" devices="tripinfo_passenger_sedan_169" vType="passenger_sedan" speedFactor="1.03" vaporized=""/>
    <tripinfo id="bus_city_460" depart="460.00" departLane="306275221#0_0" departPos="0.20" departSpeed="0.00" departDelay="0.00" arrival="493.00" arrivalLane="306275221#3_0" arrivalPos="236.74" arrivalSpeed="13.82" duration="33.00" routeLength="306.99" waitingTime="0.00" waitingCount="0" stopTime="0.00" timeLoss="9.29" rerouteNo="0" devices="tripinfo_bus_city_460" vType="bus_city" speedFactor="1.00" vaporized=""/>
    <tripinfo id="bus_city_158" depart="158.00" departLane="1060223615#0_0" departPos="12.10" departSpeed="0.00" departDelay="0.00" arrival="505.00" arrivalLane="-763092075#0_0" arrivalPos="0.20" arrivalSpeed="10.52" duration="347.00" routeLength="221.66" waitingTime="309.00" waitingCount="2" stopTime="0.00" timeLoss="331.82" rerouteNo="0" devices="tripinfo_bus_city_158" vType="bus_city" speedFactor="1.00" vaporized=""/>
    <tripinfo id="passenger_suv_302" depart="302.00" departLane="1068234514#0_0" departPos="4.80" departSpeed="0.00" departDelay="0.00" arrival="505.00" arrivalLane="306275221#0_0" arrivalPos="0.20" arrivalSpeed="5.87" duration="203.00" routeLength="130.93" waitingTime="176.00" waitingCount="3" stopTime="0.00" timeLoss="194.26" rerouteNo="0" devices="tripinfo_passenger_suv_302" vType="passenger_suv" speedFactor="1.02" vaporized=""/>
    <tripinfo id="passenger_sedan_512" depart="512.00" departLane="413949757#0_0" departPos="0.71" departSpeed="0.00" departDelay="0.00" arrival="518.00" arrivalLane="306275221#0_0" arrivalPos="0.20" arrivalSpeed="5.94" duration="6.00" routeLength="28.18" waitingTime="0.00" waitingCount="0" stopTime="0.00" timeLoss="4.19" rerouteNo="0" devices="tripinfo_passenger_sedan_512" vType="passenger_sedan" speedFactor="1.10" vaporized=""/>
    <tripinfo id="passenger_suv_367" depart="367.00" departLane="1068234514#1_0" departPos="0.20" departSpeed="0.00" departDelay="0.00" arrival="522.00" arrivalLane="413949757#4_1" arrivalPos="8.63" arrivalSpeed="23.64" duration="155.00" routeLength="369.74" waitingTime="126.00" waitingCount="3" stopTime="0.00" timeLoss="139.19" rerouteNo="0" devices="tripinfo_passenger_suv_367" vType="passenger_suv" speedFactor="0.89" vaporized=""/>
    <tripinfo id="passenger_suv_134" depart="134.00" departLane="668037880#1_0" departPos="4.80" departSpeed="0.00" departDelay="0.00" arrival="523.00" arrivalLane="50823682_0" arrivalPos="76.00" arrivalSpeed="15.03" duration="389.00" routeLength="379.84" waitingTime="336.00" waitingCount="3" stopTime="0.00" timeLoss="370.60" rerouteNo="0" devices="tripinfo_passenger_suv_134" vType="passenger_suv" speedFactor="1.12" vaporized=""/>
    <tripinfo id="passenger_sedan_507" depart="507.00" departLane="413949754_0" departPos="0.20" departSpeed="0.00" departDelay="0.00" arrival="531.00" arrivalLane="50823682_0" arrivalPos="76.00" arrivalSpeed="11.93" duration="24.00" routeLength="196.33" waitingTime="0.00" waitingCount="0" stopTime="0.00" timeLoss="8.03" rerouteNo="0" devices="tripinfo_passenger_sedan_507" vType="passenger_sedan" speedFactor="0.93" vaporized=""/>
    <tripinfo id="passenger_suv_427" depart="427.00" departLane="1068234514#0_0" departPos="4.80" departSpeed="0.00" departDelay="0.00" arrival="534.00" arrivalLane="413949757#2_1" arrivalPos="283.23" arrivalSpeed="31.40" duration="107.00" routeLength="417.52" waitingTime="68.00" waitingCount="3" stopTime="0.00" timeLoss="90.30" rerouteNo="0" devices="tripinfo_passenger_suv_427" vType="passenger_suv" speedFactor="1.14" vaporized=""/>
    <tripinfo id="passenger_hatchback_527" depart="527.00" departLane="763092075#0_0" departPos="0.20" departSpeed="0.00" departDelay="0.00" arrival="539.00" arrivalLane="-763092075#0_0" arrivalPos="0.20" arrivalSpeed="11.03" duration="12.00" routeLength="65.92" waitingTime="0.00" waitingCount="0" stopTime="0.00" timeLoss="6.53" rerouteNo="0" devices="tripinfo_passenger_hatchback_527" vType="passenger_hatchback" speedFactor="1.06" vaporized=""/>
    <tripinfo id="passenger_hatchback_472" depart="482.00" departLane="1068234506#1_0" departPos="0.20" departSpeed="0.00" departDelay="10.00" arrival="551.00" arrivalLane="763092075#1_0" arrivalPos="25.48" arrivalSpeed="12.64" duration="69.00" routeLength="123.03" waitingTime="46.00" waitingCount="2" stopTime="0.00" timeLoss="62.87" rerouteNo="0" devices="tripinfo_passenger_hatchback_472" vType="passenger_hatchback" speedFactor="1.09" vaporized=""/>
    <tripinfo id="truck_trailer_534" depart="534.00" departLane="413949757#1_0" departPos="16.09" departSpeed="0.00" departDelay="0.00" arrival="557.00" arrivalLane="50823682_0" arrivalPos="76.00" arrivalSpeed="13.69" duration="23.00" routeLength="154.64" waitingTime="1.00" waitingCount="1" stopTime="0.00" timeLoss="10.74" rerouteNo="0" devices="tripinfo_truck_trailer_534" vType="truck_trailer" speedFactor="1.02" vaporized=""/>