<?xml version="1.0" encoding="UTF-8"?>

<!-- generated on 2025-05-27 05:55:03 by Eclipse SUMO GUI Version 1.23.1
<sumoConfiguration xmlns:xsi="http://www.w3.org/2001/XMLSchema-instance" xsi:noNamespaceSchemaLocation="http://sumo.dlr.de/xsd/sumoConfiguration.xsd">

    <input>
        <net-file value="test.net.xml"/>
        <route-files value="trips.trips.xml"/>
        <additional-files value="map.poly.xml"/>
    </input>

    <output>
        <tripinfo-output value="tripinfo_qlearning.xml"/>
    </output>

    <time>
        <begin value="0"/>
        <end value="10000"/>
    </time>

    <traci_server>
        <remote-port value="50812"/>
    </traci_server>

</sumoConfiguration>
-->

<tripinfos xmlns:xsi="http://www.w3.org/2001/XMLSchema-instance" xsi:noNamespaceSchemaLocation="http://sumo.dlr.de/xsd/tripinfo_file.xsd">
    <tripinfo id="2" depart="2.00" departLane="306275221#1_0" departPos="5.10" departSpeed="0.00" departDelay="0.00" arrival="13.00" arrivalLane="-763092075#1_0" arrivalPos="25.48" arrivalSpeed="11.62" duration="11.00" routeLength="71.73" waitingTime="0.00" waitingCount="0" stopTime="0.00" timeLoss="4.45" rerouteNo="0" devices="tripinfo_2 routing_2" vType="DEFAULT_VEHTYPE" speedFactor="1.01" vaporized=""/>
    <tripinfo id="7" depart="7.00" departLane="1064294858#2_0" departPos="5.10" departSpeed="0.00" departDelay="0.00" arrival="22.00" arrivalLane="1064294858#3_0" arrivalPos="212.14" arrivalSpeed="24.35" duration="15.00" routeLength="226.83" waitingTime="0.00" waitingCount="0" stopTime="0.00" timeLoss="5.52" rerouteNo="0" devices="tripinfo_7 routing_7" vType="DEFAULT_VEHTYPE" speedFactor="0.89" vaporized=""/>
    <tripinfo id="12" depart="12.00" departLane="518974814#1_0" departPos="5.10" departSpeed="0.00" departDelay="0.00" arrival="35.00" arrivalLane="1060223615#0_0" arrivalPos="85.63" arrivalSpeed="28.79" duration="23.00" routeLength="449.21" waitingTime="0.00" waitingCount="0" stopTime="0.00" timeLoss="7.32" rerouteNo="1" devices="tripinfo_12 routing_12" vType="DEFAULT_VEHTYPE" speedFactor="1.05" vaporized=""/>
    <tripinfo id="35" depart="35.00" departLane="763092075#1_0" departPos="5.10" departSpeed="0.00" departDelay="0.00" arrival="48.00" arrivalLane="50823682_0" arrivalPos="76.00" arrivalSpeed="13.29" duration="13.00" routeLength="126.14" waitingTime="0.00" waitingCount="0" stopTime="0.00" timeLoss="3.87" rerouteNo="1" devices="tripinfo_35 routing_35" vType="DEFAULT_VEHTYPE" speedFactor="1.02" vaporized=""/>
    <tripinfo id="34" depart="34.00" departLane="413949757#2_0" departPos="5.10" departSpeed="0.00" departDelay="0.00" arrival="51.00" arrivalLane="413949757#2_0" arrivalPos="283.23" arrivalSpeed="27.35" duration="17.00" routeLength="278.13" waitingTime="0.00" waitingCount="0" stopTime="0.00" timeLoss="6.44" rerouteNo="1" devices="tripinfo_34 routing_34" vType="DEFAULT_VEHTYPE" speedFactor="0.99" vaporized=""/>
    <tripinfo id="36" depart="37.00" departLane="413949757#2_0" departPos="5.10" departSpeed="0.00" departDelay="1.00" arrival="54.00" arrivalLane="413949757#2_0" arrivalPos="283.23" arrivalSpeed="26.44" duration="17.00" routeLength="278.13" waitingTime="0.00" waitingCount="0" stopTime="0.00" timeLoss="6.33" rerouteNo="1" devices="tripinfo_36 routing_36" vType="DEFAULT_VEHTYPE" speedFactor="0.97" vaporized=""/>
    <tripinfo id="57" depart="57.00" departLane="763092075#1_0" departPos="5.10" departSpeed="0.00" departDelay="0.00" arrival="61.00" arrivalLane="763092075#1_0" arrivalPos="25.48" arrivalSpeed="8.88" duration="4.00" routeLength="20.38" waitingTime="0.00" waitingCount="0" stopTime="0.00" timeLoss="2.56" rerouteNo="1" devices="tripinfo_57 routing_57" vType="DEFAULT_VEHTYPE" speedFactor="1.14" vaporized=""/>
    <tripinfo id="24" depart="24.00" departLane="1068234506#0_0" departPos="5.10" departSpeed="0.00" departDelay="0.00" arrival="62.00" arrivalLane="440965024_0" arrivalPos="82.08" arrivalSpeed="10.68" duration="38.00" routeLength="353.69" waitingTime="0.00" waitingCount="0" stopTime="0.00" timeLoss="12.32" rerouteNo="1" devices="tripinfo_24 routing_24" vType="DEFAULT_VEHTYPE" speedFactor="0.83" vaporized=""/>
    <tripinfo id="45" depart="45.00" departLane="306275221#1_0" departPos="5.10" departSpeed="0.00" departDelay="0.00" arrival="64.00" arrivalLane="1068234512#2_0" arrivalPos="73.79" arrivalSpeed="19.86" duration="19.00" routeLength="160.00" waitingTime="0.00" waitingCount="0" stopTime="0.00" timeLoss="9.56" rerouteNo="1" devices="tripinfo_45 routing_45" vType="DEFAULT_VEHTYPE" speedFactor="1.09" vaporized=""/>
    <tripinfo id="52" depart="52.00" departLane="518974807#0_0" departPos="5.10" departSpeed="0.00" departDelay="0.00" arrival="67.00" arrivalLane="518974807#1_0" arrivalPos="92.62" arrivalSpeed="27.67" duration="15.00" routeLength="221.46" waitingTime="0.00" waitingCount="0" stopTime="0.00" timeLoss="6.91" rerouteNo="0" devices="tripinfo_52 routing_52" vType="DEFAULT_VEHTYPE" speedFactor="1.02" vaporized=""/>
    <tripinfo id="42" depart="42.00" departLane="306275221#1_0" departPos="5.10" departSpeed="0.00" departDelay="0.00" arrival="69.00" arrivalLane="306275221#3_0" arrivalPos="236.74" arrivalSpeed="14.32" duration="27.00" routeLength="298.73" waitingTime="0.00" waitingCount="0" stopTime="0.00" timeLoss="5.55" rerouteNo="1" devices="tripinfo_42 routing_42" vType="DEFAULT_VEHTYPE" speedFactor="1.09" vaporized=""/>
    <tripinfo id="43" depart="43.00" departLane="131473132#0_0" departPos="5.10" departSpeed="0.00" departDelay="0.00" arrival="71.00" arrivalLane="131473123#1_0" arrivalPos="37.01" arrivalSpeed="13.27" duration="28.00" routeLength="234.77" waitingTime="0.00" waitingCount="0" stopTime="0.00" timeLoss="9.84" rerouteNo="1" devices="tripinfo_43 routing_43" vType="DEFAULT_VEHTYPE" speedFactor="1.04" vaporized=""/>
    <tripinfo id="62" depart="62.00" departLane="1064294858#3_0" departPos="5.10" departSpeed="0.00" departDelay="0.00" arrival="78.00" arrivalLane="1064294858#3_0" arrivalPos="212.14" arrivalSpeed="27.81" duration="16.00" routeLength="207.04" waitingTime="0.00" waitingCount="0" stopTime="0.00" timeLoss="7.74" rerouteNo="1" devices="tripinfo_62 routing_62" vType="DEFAULT_VEHTYPE" speedFactor="1.02" vaporized=""/>
    <tripinfo id="37" depart="37.00" departLane="1068234514#0_0" departPos="5.10" departSpeed="0.00" departDelay="0.00" arrival="83.00" arrivalLane="413949757#5_1" arrivalPos="85.20" arrivalSpeed="32.25" duration="46.00" routeLength="519.64" waitingTime="13.00" waitingCount="1" stopTime="0.00" timeLoss="27.19" rerouteNo="1" devices="tripinfo_37 routing_37" vType="DEFAULT_VEHTYPE" speedFactor="1.18" vaporized=""/>
    <tripinfo id="71" depart="71.00" departLane="1064294858#3_0" departPos="5.10" departSpeed="0.00" departDelay="0.00" arrival="86.00" arrivalLane="1064294858#3_0" arrivalPos="212.14" arrivalSpeed="26.60" duration="15.00" routeLength="207.04" waitingTime="0.00" waitingCount="0" stopTime="0.00" timeLoss="6.51" rerouteNo="1" devices="tripinfo_71 routing_71" vType="DEFAULT_VEHTYPE" speedFactor="0.97" vaporized=""/>
    <tripinfo id="66" depart="66.00" departLane="306275221#1_0" departPos="5.10" departSpeed="0.00" departDelay="0.00" arrival="87.00" arrivalLane="1068234512#2_0" arrivalPos="73.79" arrivalSpeed="19.91" duration="21.00" routeLength="160.00" waitingTime="0.00" waitingCount="0" stopTime="0.00" timeLoss="8.69" rerouteNo="1" devices="tripinfo_66 routing_66" vType="DEFAULT_VEHTYPE" speedFactor="0.91" vaporized=""/>
    <tripinfo id="72" depart="73.00" departLane="518974820#1_0" departPos="5.10" departSpeed="0.00" departDelay="1.00" arrival="93.00" arrivalLane="518974820#1_0" arrivalPos="296.14" arrivalSpeed="18.68" duration="20.00" routeLength="291.04" waitingTime="0.00" waitingCount="0" stopTime="0.00" timeLoss="8.16" rerouteNo="1" devices="tripinfo_72 routing_72" vType="DEFAULT_VEHTYPE" speedFactor="0.94" vaporized=""/>
    <tripinfo id="73" depart="76.00" departLane="518974820#1_0" departPos="5.10" departSpeed="0.00" departDelay="3.00" arrival="95.00" arrivalLane="518974820#1_0" arrivalPos="296.14" arrivalSpeed="26.14" duration="19.00" routeLength="291.04" waitingTime="0.00" waitingCount="0" stopTime="0.00" timeLoss="8.28" rerouteNo="1" devices="tripinfo_73 routing_73" vType="DEFAULT_VEHTYPE" speedFactor="1.06" vaporized=""/>
    <tripinfo id="75" depart="79.00" departLane="518974820#1_0" departPos="5.10" departSpeed="0.00" departDelay="4.00" arrival="97.00" arrivalLane="518974820#1_0" arrivalPos="296.14" arrivalSpeed="26.57" duration="18.00" routeLength="291.04" waitingTime="0.00" waitingCount="0" stopTime="0.00" timeLoss="7.08" rerouteNo="1" devices="tripinfo_75 routing_75" vType="DEFAULT_VEHTYPE" speedFactor="0.98" vaporized=""/>
    <tripinfo id="76" depart="82.00" departLane="518974820#1_0" departPos="5.10" departSpeed="0.00" departDelay="6.00" arrival="100.00" arrivalLane="518974820#1_0" arrivalPos="296.14" arrivalSpeed="28.50" duration="18.00" routeLength="291.04" waitingTime="0.00" waitingCount="0" stopTime="0.00" timeLoss="6.92" rerouteNo="1" devices="tripinfo_76 routing_76" vType="DEFAULT_VEHTYPE" speedFactor="1.03" vaporized=""/>
    <tripinfo id="15" depart="16.00" departLane="518974807#2_0" departPos="5.10" departSpeed="0.00" departDelay="1.00" arrival="101.00" arrivalLane="413955654#1_0" arrivalPos="84.54" arrivalSpeed="21.72" duration="85.00" routeLength="263.56" waitingTime="59.00" waitingCount="1" stopTime="0.00" timeLoss="73.27" rerouteNo="1" devices="tripinfo_15 routing_15" vType="DEFAULT_VEHTYPE" speedFactor="0.93" vaporized=""/>
    <tripinfo id="74" depart="77.00" departLane="131473132#0_0" departPos="5.10" departSpeed="0.00" departDelay="3.00" arrival="108.00" arrivalLane="440965024_0" arrivalPos="82.08" arrivalSpeed="12.81" duration="31.00" routeLength="280.80" waitingTime="0.00" waitingCount="0" stopTime="0.00" timeLoss="8.43" rerouteNo="1" devices="tripinfo_74 routing_74" vType="DEFAULT_VEHTYPE" speedFactor="0.96" vaporized=""/>
    <tripinfo id="6" depart="6.00" departLane="1068234514#0_0" departPos="5.10" departSpeed="0.00" departDelay="0.00" arrival="109.00" arrivalLane="1064294862#1_2" arrivalPos="308.17" arrivalSpeed="28.29" duration="103.00" routeLength="429.39" waitingTime="64.00" waitingCount="3" stopTime="0.00" timeLoss="84.32" rerouteNo="1" devices="tripinfo_6 routing_6" vType="DEFAULT_VEHTYPE" speedFactor="1.05" vaporized=""/>
    <tripinfo id="58" depart="58.00" departLane="1060223615#0_0" departPos="5.10" departSpeed="0.00" departDelay="0.00" arrival="110.00" arrivalLane="1064294862#1_1" arrivalPos="308.17" arrivalSpeed="27.35" duration="52.00" routeLength="441.32" waitingTime="18.00" waitingCount="1" stopTime="0.00" timeLoss="35.60" rerouteNo="1" devices="tripinfo_58 routing_58" vType="DEFAULT_VEHTYPE" speedFactor="1.02" vaporized=""/>
    <tripinfo id="8" depart="8.00" departLane="518974820#2_0" departPos="5.10" departSpeed="0.00" departDelay="0.00" arrival="111.00" arrivalLane="413955654#1_0" arrivalPos="84.54" arrivalSpeed="19.69" duration="103.00" routeLength="286.22" waitingTime="70.00" waitingCount="2" stopTime="0.00" timeLoss="89.97" rerouteNo="1" devices="tripinfo_8 routing_8" vType="DEFAULT_VEHTYPE" speedFactor="0.94" vaporized=""/>
    <tripinfo id="11" depart="11.00" departLane="518974820#2_0" departPos="5.10" departSpeed="0.00" departDelay="0.00" arrival="112.00" arrivalLane="413949757#5_0" arrivalPos="85.20" arrivalSpeed="28.06" duration="101.00" routeLength="615.32" waitingTime="47.00" waitingCount="3" stopTime="0.00" timeLoss="77.12" rerouteNo="1" devices="tripinfo_11 routing_11" vType="DEFAULT_VEHTYPE" speedFactor="1.03" vaporized=""/>
    <tripinfo id="63" depart="63.00" departLane="518974814#1_0" departPos="5.10" departSpeed="0.00" departDelay="0.00" arrival="119.00" arrivalLane="1064294862#1_1" arrivalPos="308.17" arrivalSpeed="26.21" duration="56.00" routeLength="810.00" waitingTime="3.00" waitingCount="1" stopTime="0.00" timeLoss="26.06" rerouteNo="1" devices="tripinfo_63 routing_63" vType="DEFAULT_VEHTYPE" speedFactor="0.99" vaporized=""/>
    <tripinfo id="113" depart="113.00" departLane="413955654#1_0" departPos="5.10" departSpeed="0.00" departDelay="0.00" arrival="122.00" arrivalLane="413955654#1_0" arrivalPos="84.54" arrivalSpeed="16.81" duration="9.00" routeLength="79.44" waitingTime="0.00" waitingCount="0" stopTime="0.00" timeLoss="5.98" rerouteNo="1" devices="tripinfo_113 routing_113" vType="DEFAULT_VEHTYPE" speedFactor="1.01" vaporized=""/>
    <tripinfo id="91" depart="91.00" departLane="131473132#0_0" departPos="5.10" departSpeed="0.00" departDelay="0.00" arrival="124.00" arrivalLane="131473118_0" arrivalPos="96.69" arrivalSpeed="11.53" duration="33.00" routeLength="270.86" waitingTime="0.00" waitingCount="0" stopTime="0.00" timeLoss="9.46" rerouteNo="1" devices="tripinfo_91 routing_91" vType="DEFAULT_VEHTYPE" speedFactor="0.89" vaporized=""/>
    <tripinfo id="114" depart="114.00" departLane="413949757#1_0" departPos="5.10" departSpeed="0.00" departDelay="0.00" arrival="128.00" arrivalLane="-763092075#1_0" arrivalPos="25.48" arrivalSpeed="12.77" duration="14.00" routeLength="97.70" waitingTime="0.00" waitingCount="0" stopTime="0.00" timeLoss="6.43" rerouteNo="1" devices="tripinfo_114 routing_114" vType="DEFAULT_VEHTYPE" speedFactor="1.10" vaporized=""/>
    <tripinfo id="100" depart="100.00" departLane="131473132#0_0" departPos="5.10" departSpeed="0.00" departDelay="0.00" arrival="129.00" arrivalLane="440965024_0" arrivalPos="82.08" arrivalSpeed="14.73" duration="29.00" routeLength="280.80" waitingTime="0.00" waitingCount="0" stopTime="0.00" timeLoss="9.22" rerouteNo="1" devices="tripinfo_100 routing_100" vType="DEFAULT_VEHTYPE" speedFactor="1.06" vaporized=""/>
    <tripinfo id="111" depart="111.00" departLane="518974807#0_0" departPos="5.10" departSpeed="0.00" departDelay="0.00" arrival="136.00" arrivalLane="518974807#2_1" arrivalPos="119.60" arrivalSpeed="14.81" duration="25.00" routeLength="341.36" waitingTime="0.00" waitingCount="0" stopTime="0.00" timeLoss="10.59" rerouteNo="1" devices="tripinfo_111 routing_111" vType="DEFAULT_VEHTYPE" speedFactor="0.87" vaporized=""/>
    <tripinfo id="23" depart="23.00" departLane="518974814#1_0" departPos="5.10" departSpeed="0.00" departDelay="0.00" arrival="141.00" arrivalLane="413949757#2_0" arrivalPos="283.23" arrivalSpeed="24.17" duration="118.00" routeLength="812.59" waitingTime="59.00" waitingCount="2" stopTime="0.00" timeLoss="82.92" rerouteNo="1" devices="tripinfo_23 routing_23" vType="DEFAULT_VEHTYPE" speedFactor="0.89" vaporized=""/>
    <tripinfo id="123" depart="123.00" departLane="518974814#1_0" departPos="5.10" departSpeed="0.00" departDelay="0.00" arrival="141.00" arrivalLane="518974814#1_0" arrivalPos="295.80" arrivalSpeed="27.34" duration="18.00" routeLength="290.70" waitingTime="0.00" waitingCount="0" stopTime="0.00" timeLoss="7.49" rerouteNo="1" devices="tripinfo_123 routing_123" vType="DEFAULT_VEHTYPE" speedFactor="1.02" vaporized=""/>
    <tripinfo id="3" depart="3.00" departLane="-440965024_0" departPos="5.10" departSpeed="0.00" departDelay="0.00" arrival="145.00" arrivalLane="1064294862#1_0" arrivalPos="308.17" arrivalSpeed="29.12" duration="142.00" routeLength="573.90" waitingTime="89.00" waitingCount="2" stopTime="0.00" timeLoss="112.66" rerouteNo="1" devices="tripinfo_3 routing_3" vType="DEFAULT_VEHTYPE" speedFactor="1.08" vaporized=""/>
    <tripinfo id="48" depart="48.00" departLane="668037880#1_0" departPos="5.10" departSpeed="0.00" departDelay="0.00" arrival="151.00" arrivalLane="763092075#1_0" arrivalPos="25.48" arrivalSpeed="11.87" duration="103.00" routeLength="270.85" waitingTime="66.00" waitingCount="2" stopTime="0.00" timeLoss="87.69" rerouteNo="1" devices="tripinfo_48 routing_48" vType="DEFAULT_VEHTYPE" speedFactor="0.88" vaporized=""/>
    <tripinfo id="50" depart="50.00" departLane="1060223615#0_0" departPos="5.10" departSpeed="0.00" departDelay="0.00" arrival="152.00" arrivalLane="413949757#5_0" arrivalPos="85.20" arrivalSpeed="22.54" duration="102.00" routeLength="546.33" waitingTime="49.00" waitingCount="2" stopTime="0.00" timeLoss="76.14" rerouteNo="1" devices="tripinfo_50 routing_50" vType="DEFAULT_VEHTYPE" speedFactor="0.85" vaporized=""/>
    <tripinfo id="81" depart="81.00" departLane="668037880#1_0" departPos="5.10" departSpeed="0.00" departDelay="0.00" arrival="152.00" arrivalLane="1068234512#2_2" arrivalPos="73.79" arrivalSpeed="22.67" duration="71.00" routeLength="319.59" waitingTime="38.00" waitingCount="1" stopTime="0.00" timeLoss="57.70" rerouteNo="1" devices="tripinfo_81 routing_81" vType="DEFAULT_VEHTYPE" speedFactor="1.00" vaporized=""/>
    <tripinfo id="107" depart="107.00" departLane="1068234506#0_0" departPos="5.10" departSpeed="0.00" departDelay="0.00" arrival="155.00" arrivalLane="131473120#1_0" arrivalPos="48.04" arrivalSpeed="13.09" duration="48.00" routeLength="238.01" waitingTime="12.00" waitingCount="2" stopTime="0.00" timeLoss="35.50" rerouteNo="1" devices="tripinfo_107 routing_107" vType="DEFAULT_VEHTYPE" speedFactor="1.03" vaporized=""/>
    <tripinfo id="40" depart="40.00" departLane="668037880#0_0" departPos="5.10" departSpeed="0.00" departDelay="0.00" arrival="157.00" arrivalLane="413949757#4_0" arrivalPos="8.63" arrivalSpeed="25.07" duration="117.00" routeLength="783.21" waitingTime="59.00" waitingCount="2" stopTime="0.00" timeLoss="89.15" rerouteNo="1" devices="tripinfo_40 routing_40" vType="DEFAULT_VEHTYPE" speedFactor="1.03" vaporized=""/>
    <tripinfo id="83" depart="84.00" departLane="668037880#1_0" departPos="5.10" departSpeed="0.00" departDelay="1.00" arrival="158.00" arrivalLane="413949757#2_0" arrivalPos="283.23" arrivalSpeed="25.74" duration="74.00" routeLength="518.21" waitingTime="33.00" waitingCount="1" stopTime="0.00" timeLoss="53.90" rerouteNo="1" devices="tripinfo_83 routing_83" vType="DEFAULT_VEHTYPE" speedFactor="0.97" vaporized=""/>
    <tripinfo id="140" depart="140.00" departLane="1064294862#1_0" departPos="5.10" departSpeed="0.00" departDelay="0.00" arrival="158.00" arrivalLane="1064294862#2_0" arrivalPos="7.20" arrivalSpeed="30.27" duration="18.00" routeLength="310.57" waitingTime="0.00" waitingCount="0" stopTime="0.00" timeLoss="7.57" rerouteNo="0" devices="tripinfo_140 routing_140" vType="DEFAULT_VEHTYPE" speedFactor="1.11" vaporized=""/>
    <tripinfo id="49" depart="51.00" departLane="668037880#1_0" departPos="5.10" departSpeed="0.00" departDelay="2.00" arrival="159.00" arrivalLane="413949757#5_0" arrivalPos="85.20" arrivalSpeed="22.33" duration="108.00" routeLength="620.63" waitingTime="61.00" waitingCount="2" stopTime="0.00" timeLoss="81.25" rerouteNo="1" devices="tripinfo_49 routing_49" vType="DEFAULT_VEHTYPE" speedFactor="0.85" vaporized=""/>
    <tripinfo id="18" depart="18.00" departLane="668037880#0_0" departPos="5.10" departSpeed="0.00" departDelay="0.00" arrival="172.00" arrivalLane="306275221#3_0" arrivalPos="236.74" arrivalSpeed="12.08" duration="154.00" routeLength="786.64" waitingTime="83.00" waitingCount="2" stopTime="0.00" timeLoss="109.61" rerouteNo="1" devices="tripinfo_18 routing_18" vType="DEFAULT_VEHTYPE" speedFactor="0.94" vaporized=""/>
    <tripinfo id="155" depart="155.00" departLane="1064294862#1_0" departPos="5.10" departSpeed="0.00" departDelay="0.00" arrival="173.00" arrivalLane="1064294862#1_0" arrivalPos="308.17" arrivalSpeed="29.93" duration="18.00" routeLength="303.07" waitingTime="0.00" waitingCount="0" stopTime="0.00" timeLoss="7.37" rerouteNo="1" devices="tripinfo_155 routing_155" vType="DEFAULT_VEHTYPE" speedFactor="1.12" vaporized=""/>
    <tripinfo id="26" depart="32.00" departLane="1068234511#1_0" departPos="5.10" departSpeed="0.00" departDelay="6.00" arrival="184.00" arrivalLane="440965024_0" arrivalPos="82.08" arrivalSpeed="11.62" duration="152.00" routeLength="335.69" waitingTime="103.00" waitingCount="2" stopTime="0.00" timeLoss="127.29" rerouteNo="1" devices="tripinfo_26 routing_26" vType="DEFAULT_VEHTYPE" speedFactor="0.92" vaporized=""/>
    <tripinfo id="150" depart="153.00" departLane="1060223615#0_0" departPos="5.10" departSpeed="0.00" departDelay="3.00" arrival="199.00" arrivalLane="1064294862#1_1" arrivalPos="308.17" arrivalSpeed="26.45" duration="46.00" routeLength="441.32" waitingTime="10.00" waitingCount="1" stopTime="0.00" timeLoss="28.92" rerouteNo="1" devices="tripinfo_150 routing_150" vType="DEFAULT_VEHTYPE" speedFactor="0.96" vaporized=""/>
    <tripinfo id="9" depart="9.00" departLane="131473123#0_0" departPos="5.10" departSpeed="0.00" departDelay="0.00" arrival="200.00" arrivalLane="413949757#2_0" arrivalPos="283.23" arrivalSpeed="22.92" duration="191.00" routeLength="568.70" waitingTime="128.00" waitingCount="3" stopTime="0.00" timeLoss="155.64" rerouteNo="1" devices="tripinfo_9 routing_9" vType="DEFAULT_VEHTYPE" speedFactor="0.86" vaporized=""/>
    <tripinfo id="184" depart="184.00" departLane="518974814#0_0" departPos="5.10" departSpeed="0.00" departDelay="0.00" arrival="205.00" arrivalLane="518974814#2_0" arrivalPos="64.62" arrivalSpeed="25.67" duration="21.00" routeLength="370.99" waitingTime="0.00" waitingCount="0" stopTime="0.00" timeLoss="6.13" rerouteNo="1" devices="tripinfo_184 routing_184" vType="DEFAULT_VEHTYPE" speedFactor="0.94" vaporized=""/>
    <tripinfo id="175" depart="177.00" departLane="518974814#2_0" departPos="5.10" departSpeed="0.00" departDelay="2.00" arrival="206.00" arrivalLane="1064294862#1_1" arrivalPos="308.17" arrivalSpeed="25.02" duration="29.00" routeLength="514.10" waitingTime="0.00" waitingCount="0" stopTime="0.00" timeLoss="8.61" rerouteNo="1" devices="tripinfo_175 routing_175" vType="DEFAULT_VEHTYPE" speedFactor="0.92" vaporized=""/>
    <tripinfo id="191" depart="192.00" departLane="518974814#1_0" departPos="5.10" departSpeed="0.00" departDelay="1.00" arrival="211.00" arrivalLane="518974814#1_0" arrivalPos="295.80" arrivalSpeed="24.90" duration="19.00" routeLength="290.70" waitingTime="0.00" waitingCount="0" stopTime="0.00" timeLoss="7.28" rerouteNo="1" devices="tripinfo_191 routing_191" vType="DEFAULT_VEHTYPE" speedFactor="0.93" vaporized=""/>
    <tripinfo id="203" depart="203.00" departLane="518974814#1_0" departPos="5.10" departSpeed="0.00" departDelay="0.00" arrival="221.00" arrivalLane="518974814#1_0" arrivalPos="295.80" arrivalSpeed="30.45" duration="18.00" routeLength="290.70" waitingTime="0.00" waitingCount="0" stopTime="0.00" timeLoss="7.87" rerouteNo="1" devices="tripinfo_203 routing_203" vType="DEFAULT_VEHTYPE" speedFactor="1.11" vaporized=""/>
    <tripinfo id="207" depart="207.00" departLane="413949757#2_0" departPos="5.10" departSpeed="0.00" departDelay="0.00" arrival="228.00" arrivalLane="413949757#5_0" arrivalPos="85.20" arrivalSpeed="26.87" duration="21.00" routeLength="380.55" waitingTime="0.00" waitingCount="0" stopTime="0.00" timeLoss="6.86" rerouteNo="1" devices="tripinfo_207 routing_207" vType="DEFAULT_VEHTYPE" speedFactor="0.97" vaporized=""/>
    <tripinfo id="84" depart="87.00" departLane="668037880#1_0" departPos="5.10" departSpeed="0.00" departDelay="3.00" arrival="231.00" arrivalLane="1068234512#1_2" arrivalPos="32.70" arrivalSpeed="13.28" duration="144.00" routeLength="231.23" waitingTime="111.00" waitingCount="3" stopTime="0.00" timeLoss="135.87" rerouteNo="1" devices="tripinfo_84 routing_84" vType="DEFAULT_VEHTYPE" speedFactor="1.15" vaporized=""/>
    <tripinfo id="68" depart="68.00" departLane="518974814#1_0" departPos="5.10" departSpeed="0.00" departDelay="0.00" arrival="233.00" arrivalLane="413949757#2_0" arrivalPos="283.23" arrivalSpeed="28.50" duration="165.00" routeLength="812.59" waitingTime="91.00" waitingCount="3" stopTime="0.00" timeLoss="134.06" rerouteNo="1" devices="tripinfo_68 routing_68" vType="DEFAULT_VEHTYPE" speedFactor="1.04" vaporized=""/>
    <tripinfo id="218" depart="218.00" departLane="518974814#1_0" departPos="5.10" departSpeed="0.00" departDelay="0.00" arrival="235.00" arrivalLane="518974814#1_0" arrivalPos="295.80" arrivalSpeed="29.32" duration="17.00" routeLength="290.70" waitingTime="0.00" waitingCount="0" stopTime="0.00" timeLoss="7.09" rerouteNo="1" devices="tripinfo_218 routing_218" vType="DEFAULT_VEHTYPE" speedFactor="1.07" vaporized=""/>
    <tripinfo id="19" depart="19.00" departLane="1068234506#0_0" departPos="5.10" departSpeed="0.00" departDelay="0.00" arrival="242.00" arrivalLane="1068234511#1_0" arrivalPos="58.44" arrivalSpeed="3.51" duration="223.00" routeLength="366.59" waitingTime="162.00" waitingCount="4" stopTime="0.00" timeLoss="202.39" rerouteNo="1" devices="tripinfo_19 routing_19" vType="DEFAULT_VEHTYPE" speedFactor="1.16" vaporized=""/>
    <tripinfo id="69" depart="69.00" departLane="668037880#0_0" departPos="5.10" departSpeed="0.00" departDelay="0.00" arrival="243.00" arrivalLane="413949757#2_0" arrivalPos="283.23" arrivalSpeed="27.62" duration="174.00" routeLength="766.24" waitingTime="107.00" waitingCount="4" stopTime="0.00" timeLoss="146.82" rerouteNo="1" devices="tripinfo_69 routing_69" vType="DEFAULT_VEHTYPE" speedFactor="1.02" vaporized=""/>
    <tripinfo id="143" depart="144.00" departLane="668037880#1_0" departPos="5.10" departSpeed="0.00" departDelay="1.00" arrival="244.00" arrivalLane="413949757#2_1" arrivalPos="283.23" arrivalSpeed="30.17" duration="100.00" routeLength="518.21" waitingTime="58.00" waitingCount="2" stopTime="0.00" timeLoss="83.37" rerouteNo="1" devices="tripinfo_143 routing_143" vType="DEFAULT_VEHTYPE" speedFactor="1.13" vaporized=""/>
    <tripinfo id="230" depart="230.00" departLane="1064294858#3_0" departPos="5.10" departSpeed="0.00" departDelay="0.00" arrival="244.00" arrivalLane="1064294858#3_0" arrivalPos="212.14" arrivalSpeed="28.75" duration="14.00" routeLength="207.04" waitingTime="0.00" waitingCount="0" stopTime="0.00" timeLoss="6.33" rerouteNo="1" devices="tripinfo_230 routing_230" vType="DEFAULT_VEHTYPE" speedFactor="1.04" vaporized=""/>
    <tripinfo id="56" depart="56.00" departLane="1060223615#0_0" departPos="5.10" departSpeed="0.00" departDelay="0.00" arrival="245.00" arrivalLane="306275221#3_0" arrivalPos="236.74" arrivalSpeed="11.61" duration="189.00" routeLength="477.19" waitingTime="123.00" waitingCount="3" stopTime="0.00" timeLoss="155.09" rerouteNo="1" devices="tripinfo_56 routing_56" vType="DEFAULT_VEHTYPE" speedFactor="0.90" vaporized=""/>
    <tripinfo id="141" depart="141.00" departLane="668037880#1_0" departPos="5.10" departSpeed="0.00" departDelay="0.00" arrival="245.00" arrivalLane="413949757#2_0" arrivalPos="283.23" arrivalSpeed="32.28" duration="104.00" routeLength="518.21" waitingTime="63.00" waitingCount="2" stopTime="0.00" timeLoss="87.38" rerouteNo="1" devices="tripinfo_141 routing_141" vType="DEFAULT_VEHTYPE" speedFactor="1.16" vaporized=""/>
    <tripinfo id="221" depart="221.00" departLane="131473132#0_0" departPos="5.10" departSpeed="0.00" departDelay="0.00" arrival="246.00" arrivalLane="1064294858#3_0" arrivalPos="212.14" arrivalSpeed="28.91" duration="25.00" routeLength="329.77" waitingTime="0.00" waitingCount="0" stopTime="0.00" timeLoss="11.13" rerouteNo="1" devices="tripinfo_221 routing_221" vType="DEFAULT_VEHTYPE" speedFactor="1.15" vaporized=""/>
    <tripinfo id="228" depart="228.00" departLane="1064294862#1_0" departPos="5.10" departSpeed="0.00" departDelay="0.00" arrival="246.00" arrivalLane="1064294862#1_0" arrivalPos="308.17" arrivalSpeed="29.87" duration="18.00" routeLength="303.07" waitingTime="0.00" waitingCount="0" stopTime="0.00" timeLoss="7.21" rerouteNo="1" devices="tripinfo_228 routing_228" vType="DEFAULT_VEHTYPE" speedFactor="1.09" vaporized=""/>
    <tripinfo id="164" depart="164.00" departLane="668037880#0_0" departPos="5.10" departSpeed="0.00" departDelay="0.00" arrival="247.00" arrivalLane="413949757#2_0" arrivalPos="283.23" arrivalSpeed="28.14" duration="83.00" routeLength="766.24" waitingTime="32.00" waitingCount="1" stopTime="0.00" timeLoss="56.16" rerouteNo="1" devices="tripinfo_164 routing_164" vType="DEFAULT_VEHTYPE" speedFactor="1.05" vaporized=""/>
    <tripinfo id="30" depart="30.00" departLane="-131473132#0_0" departPos="5.10" departSpeed="0.00" departDelay="0.00" arrival="256.00" arrivalLane="131473120#1_0" arrivalPos="48.04" arrivalSpeed="14.89" duration="226.00" routeLength="361.51" waitingTime="170.00" waitingCount="3" stopTime="0.00" timeLoss="204.75" rerouteNo="1" devices="tripinfo_30 routing_30" vType="DEFAULT_VEHTYPE" speedFactor="1.18" vaporized=""/>
    <tripinfo id="147" depart="147.00" departLane="668037880#0_0" departPos="5.10" departSpeed="0.00" departDelay="0.00" arrival="264.00" arrivalLane="306275221#3_0" arrivalPos="236.74" arrivalSpeed="12.74" duration="117.00" routeLength="786.64" waitingTime="47.00" waitingCount="2" stopTime="0.00" timeLoss="74.55" rerouteNo="1" devices="tripinfo_147 routing_147" vType="DEFAULT_VEHTYPE" speedFactor="1.00" vaporized=""/>
    <tripinfo id="242" depart="242.00" departLane="131473132#0_0" departPos="5.10" departSpeed="0.00" departDelay="0.00" arrival="269.00" arrivalLane="1064294858#3_0" arrivalPos="212.14" arrivalSpeed="26.58" duration="27.00" routeLength="329.77" waitingTime="0.00" waitingCount="0" stopTime="0.00" timeLoss="9.86" rerouteNo="1" devices="tripinfo_242 routing_242" vType="DEFAULT_VEHTYPE" speedFactor="0.97" vaporized=""/>
    <tripinfo id="264" depart="264.00" departLane="306275221#1_0" departPos="5.10" departSpeed="0.00" departDelay="0.00" arrival="281.00" arrivalLane="1068234512#2_0" arrivalPos="73.79" arrivalSpeed="18.45" duration="17.00" routeLength="160.00" waitingTime="0.00" waitingCount="0" stopTime="0.00" timeLoss="8.33" rerouteNo="1" devices="tripinfo_264 routing_264" vType="DEFAULT_VEHTYPE" speedFactor="1.13" vaporized=""/>