<?xml version="1.0" encoding="UTF-8"?>

<!-- generated on 2025-04-02 11:07:49 by Eclipse SUMO GUI Version 1.22.0
<sumoConfiguration xmlns:xsi="http://www.w3.org/2001/XMLSchema-instance" xsi:noNamespaceSchemaLocation="http://sumo.dlr.de/xsd/sumoConfiguration.xsd">

    <input>
        <net-file value="osm.net.xml.gz"/>
        <route-files value="bsdroute.rou.xml"/>
        <additional-files value="osm.poly.xml.gz"/>
    </input>

    <output>
        <summary-output value="summary.xml"/>
        <tripinfo-output value="tripinfo.xml"/>
    </output>

    <processing>
        <ignore-route-errors value="true"/>
        <time-to-teleport value="-1"/>
        <waiting-time-memory value="1000"/>
        <tls.actuated.jam-threshold value="30"/>
    </processing>

    <routing>
        <device.rerouting.adaptation-steps value="18"/>
        <device.rerouting.adaptation-interval value="10"/>
    </routing>

    <report>
        <verbose value="true"/>
        <duration-log.statistics value="true"/>
        <no-step-log value="true"/>
    </report>

    <traci_server>
        <remote-port value="53052"/>
    </traci_server>

    <gui_only>
        <gui-settings-file value="osm.view.xml"/>
    </gui_only>

</sumoConfiguration>
-->

<tripinfos xmlns:xsi="http://www.w3.org/2001/XMLSchema-instance" xsi:noNamespaceSchemaLocation="http://sumo.dlr.de/xsd/tripinfo_file.xsd">
    <tripinfo id="flow_emergency_ew.0" depart="0.00" departLane="749662140#0_1" departPos="7.10" departSpeed="16.88" departDelay="0.00" arrival="10.00" arrivalLane="978400303#1_1" arrivalPos="131.20" arrivalSpeed="27.80" duration="10.00" routeLength="246.76" waitingTime="0.00" waitingCount="0" stopTime="0.00" timeLoss="0.57" rerouteNo="0" devices="tripinfo_flow_emergency_ew.0" vType="emergency" speedFactor="1.03" vaporized=""/>
    <tripinfo id="flow_passenger_ew.0" depart="0.00" departLane="749662140#0_0" departPos="0.00" departSpeed="17.16" departDelay="0.00" arrival="14.00" arrivalLane="978400303#1_0" arrivalPos="131.20" arrivalSpeed="18.94" duration="14.00" routeLength="253.86" waitingTime="0.00" waitingCount="0" stopTime="0.00" timeLoss="0.50" rerouteNo="0" devices="tripinfo_flow_passenger_ew.0" vType="passenger" speedFactor="1.01" vaporized=""/>
    <tripinfo id="flow_emergency_en.0" depart="0.00" departLane="749662140#0_3" departPos="0.00" departSpeed="18.66" departDelay="0.00" arrival="16.00" arrivalLane="749988360#2_2" arrivalPos="63.94" arrivalSpeed="28.34" duration="16.00" routeLength="198.44" waitingTime="2.00" waitingCount="1" stopTime="0.00" timeLoss="8.18" rerouteNo="0" devices="tripinfo_flow_emergency_en.0" vType="emergency" speedFactor="1.09" vaporized=""/>
    <tripinfo id="flow_emergency_sw.0" depart="0.00" departLane="1053267667#3_0" departPos="22.88" departSpeed="22.73" departDelay="0.00" arrival="16.00" arrivalLane="978400303#1_0" arrivalPos="131.20" arrivalSpeed="26.09" duration="16.00" routeLength="254.38" waitingTime="0.00" waitingCount="0" stopTime="0.00" timeLoss="4.92" rerouteNo="0" devices="tripinfo_flow_emergency_sw.0" vType="emergency" speedFactor="0.94" vaporized=""/>
    <tripinfo id="flow_emergency_we.0" depart="0.00" departLane="885403818#0_3" departPos="7.10" departSpeed="26.01" departDelay="0.00" arrival="18.00" arrivalLane="563175146#1_2" arrivalPos="228.90" arrivalSpeed="25.47" duration="18.00" routeLength="372.11" waitingTime="0.00" waitingCount="0" stopTime="0.00" timeLoss="3.21" rerouteNo="0" devices="tripinfo_flow_emergency_we.0" vType="emergency" speedFactor="0.94" vaporized=""/>
    <tripinfo id="flow_passenger_en.0" depart="0.00" departLane="749662140#0_2" departPos="7.10" departSpeed="15.38" departDelay="0.00" arrival="21.00" arrivalLane="749988360#2_2" arrivalPos="63.94" arrivalSpeed="18.73" duration="21.00" routeLength="191.34" waitingTime="2.00" waitingCount="1" stopTime="0.00" timeLoss="10.21" rerouteNo="0" devices="tripinfo_flow_passenger_en.0" vType="passenger" speedFactor="1.02" vaporized=""/>
    <tripinfo id="flow_passenger_sn.0" depart="2.00" departLane="1053267667#3_1" departPos="27.55" departSpeed="13.14" departDelay="2.00" arrival="21.00" arrivalLane="749988360#2_0" arrivalPos="63.94" arrivalSpeed="18.78" duration="19.00" routeLength="215.58" waitingTime="0.00" waitingCount="0" stopTime="0.00" timeLoss="8.15" rerouteNo="0" devices="tripinfo_flow_passenger_sn.0" vType="passenger" speedFactor="0.92" vaporized=""/>
    <tripinfo id="flow_passenger_we.0" depart="0.00" departLane="885403818#0_0" departPos="9.61" departSpeed="20.00" departDelay="0.00" arrival="22.00" arrivalLane="563175146#1_0" arrivalPos="228.90" arrivalSpeed="19.79" duration="22.00" routeLength="369.60" waitingTime="0.00" waitingCount="0" stopTime="0.00" timeLoss="2.72" rerouteNo="0" devices="tripinfo_flow_passenger_we.0" vType="passenger" speedFactor="1.13" vaporized=""/>
    <tripinfo id="flow_passenger_sn.2" depart="6.00" departLane="1053267667#3_2" departPos="81.47" departSpeed="0.05" departDelay="0.00" arrival="22.00" arrivalLane="749988360#2_1" arrivalPos="63.94" arrivalSpeed="19.99" duration="16.00" routeLength="161.66" waitingTime="3.00" waitingCount="1" stopTime="0.00" timeLoss="7.76" rerouteNo="0" devices="tripinfo_flow_passenger_sn.2" vType="passenger" speedFactor="0.90" vaporized=""/>
    <tripinfo id="flow_emergency_sn.0" depart="0.00" departLane="1053267667#3_2" departPos="0.00" departSpeed="24.40" departDelay="0.00" arrival="23.00" arrivalLane="749988360#2_2" arrivalPos="63.94" arrivalSpeed="23.68" duration="23.00" routeLength="243.13" waitingTime="5.00" waitingCount="1" stopTime="0.00" timeLoss="12.22" rerouteNo="0" devices="tripinfo_flow_emergency_sn.0" vType="emergency" speedFactor="0.88" vaporized=""/>
    <tripinfo id="flow_truck_sw.0" depart="0.00" departLane="1053267667#3_2" departPos="81.21" departSpeed="0.00" departDelay="0.00" arrival="24.00" arrivalLane="978400303#1_0" arrivalPos="131.20" arrivalSpeed="16.65" duration="24.00" routeLength="196.05" waitingTime="4.00" waitingCount="1" stopTime="0.00" timeLoss="12.23" rerouteNo="0" devices="tripinfo_flow_truck_sw.0" vType="truck" speedFactor="1.18" vaporized=""/>
    <tripinfo id="flow_bus_sw.0" depart="0.00" departLane="1053267667#3_1" departPos="14.20" departSpeed="0.00" departDelay="0.00" arrival="27.00" arrivalLane="978400303#1_0" arrivalPos="131.20" arrivalSpeed="15.77" duration="27.00" routeLength="263.06" waitingTime="0.00" waitingCount="0" stopTime="0.00" timeLoss="10.02" rerouteNo="0" devices="tripinfo_flow_bus_sw.0" vType="bus" speedFactor="0.89" vaporized=""/>
    <tripinfo id="flow_passenger_sw.0" depart="0.00" departLane="1053267667#3_2" departPos="74.11" departSpeed="0.00" departDelay="0.00" arrival="30.00" arrivalLane="978400303#1_0" arrivalPos="131.20" arrivalSpeed="18.99" duration="30.00" routeLength="203.15" waitingTime="9.00" waitingCount="2" stopTime="0.00" timeLoss="19.09" rerouteNo="0" devices="tripinfo_flow_passenger_sw.0" vType="passenger" speedFactor="0.95" vaporized=""/>
    <tripinfo id="flow_truck_ws.0" depart="1.00" departLane="885403818#0_3" departPos="10.31" departSpeed="18.00" departDelay="1.00" arrival="32.00" arrivalLane="757092063_4" arrivalPos="47.17" arrivalSpeed="16.26" duration="31.00" routeLength="229.38" waitingTime="8.00" waitingCount="1" stopTime="0.00" timeLoss="18.15" rerouteNo="0" devices="tripinfo_flow_truck_ws.0" vType="truck" speedFactor="0.90" vaporized=""/>
    <tripinfo id="flow_emergency_ws.0" depart="0.00" departLane="885403818#0_1" departPos="7.10" departSpeed="5.53" departDelay="0.00" arrival="34.00" arrivalLane="757092063_4" arrivalPos="47.17" arrivalSpeed="23.31" duration="34.00" routeLength="232.59" waitingTime="7.00" waitingCount="1" stopTime="0.00" timeLoss="26.12" rerouteNo="0" devices="tripinfo_flow_emergency_ws.0" vType="emergency" speedFactor="1.16" vaporized=""/>
    <tripinfo id="flow_passenger_we.1" depart="5.00" departLane="885403818#0_3" departPos="0.00" departSpeed="10.18" departDelay="0.00" arrival="35.00" arrivalLane="563175146#1_2" arrivalPos="228.90" arrivalSpeed="18.74" duration="30.00" routeLength="379.21" waitingTime="0.00" waitingCount="0" stopTime="0.00" timeLoss="10.68" rerouteNo="0" devices="tripinfo_flow_passenger_we.1" vType="passenger" speedFactor="1.04" vaporized=""/>
    <tripinfo id="flow_passenger_we.2" depart="10.00" departLane="885403818#0_3" departPos="0.00" departSpeed="4.82" departDelay="0.00" arrival="37.00" arrivalLane="563175146#1_2" arrivalPos="228.90" arrivalSpeed="19.22" duration="27.00" routeLength="379.21" waitingTime="0.00" waitingCount="0" stopTime="0.00" timeLoss="7.37" rerouteNo="0" devices="tripinfo_flow_passenger_we.2" vType="passenger" speedFactor="0.90" vaporized=""/>
    <tripinfo id="flow_truck_we.0" depart="0.00" departLane="885403818#0_2" departPos="0.00" departSpeed="18.00" departDelay="0.00" arrival="38.00" arrivalLane="563175146#1_1" arrivalPos="228.90" arrivalSpeed="17.35" duration="38.00" routeLength="379.21" waitingTime="4.00" waitingCount="1" stopTime="0.00" timeLoss="16.83" rerouteNo="0" devices="tripinfo_flow_truck_we.0" vType="truck" speedFactor="1.10" vaporized=""/>
    <tripinfo id="flow_bus_we.0" depart="0.00" departLane="885403818#0_1" departPos="0.00" departSpeed="0.00" departDelay="0.00" arrival="39.00" arrivalLane="563175146#1_0" arrivalPos="228.90" arrivalSpeed="15.36" duration="39.00" routeLength="379.21" waitingTime="1.00" waitingCount="1" stopTime="0.00" timeLoss="15.01" rerouteNo="0" devices="tripinfo_flow_bus_we.0" vType="bus" speedFactor="0.94" vaporized=""/>
    <tripinfo id="flow_passenger_sn.3" depart="9.00" departLane="1053267667#3_0" departPos="0.00" departSpeed="5.66" departDelay="0.00" arrival="40.00" arrivalLane="749988360#2_0" arrivalPos="63.94" arrivalSpeed="18.81" duration="31.00" routeLength="243.13" waitingTime="5.00" waitingCount="1" stopTime="0.00" timeLoss="18.32" rerouteNo="0" devices="tripinfo_flow_passenger_sn.3" vType="passenger" speedFactor="1.10" vaporized=""/>
    <tripinfo id="flow_truck_sn.0" depart="3.00" departLane="1053267667#3_1" departPos="13.26" departSpeed="13.44" departDelay="3.00" arrival="42.00" arrivalLane="749988360#2_1" arrivalPos="63.94" arrivalSpeed="17.10" duration="39.00" routeLength="229.87" waitingTime="7.00" waitingCount="2" stopTime="0.00" timeLoss="25.94" rerouteNo="0" devices="tripinfo_flow_truck_sn.0" vType="truck" speedFactor="0.97" vaporized=""/>
    <tripinfo id="flow_passenger_sn.1" depart="3.00" departLane="1053267667#3_0" departPos="0.00" departSpeed="9.44" departDelay="0.00" arrival="43.00" arrivalLane="749988360#2_0" arrivalPos="63.94" arrivalSpeed="19.44" duration="40.00" routeLength="243.13" waitingTime="7.00" waitingCount="3" stopTime="0.00" timeLoss="27.58" rerouteNo="0" devices="tripinfo_flow_passenger_sn.1" vType="passenger" speedFactor="0.96" vaporized=""/>
    <tripinfo id="flow_passenger_sw.1" depart="9.00" departLane="1053267667#3_2" departPos="0.00" departSpeed="2.50" departDelay="0.00" arrival="43.00" arrivalLane="978400303#1_0" arrivalPos="131.20" arrivalSpeed="18.77" duration="34.00" routeLength="277.26" waitingTime="4.00" waitingCount="1" stopTime="0.00" timeLoss="19.68" rerouteNo="0" devices="tripinfo_flow_passenger_sw.1" vType="passenger" speedFactor="1.00" vaporized=""/>
    <tripinfo id="flow_passenger_sn.4" depart="12.00" departLane="1053267667#3_0" departPos="0.00" departSpeed="4.57" departDelay="0.00" arrival="44.00" arrivalLane="749988360#2_1" arrivalPos="63.94" arrivalSpeed="19.11" duration="32.00" routeLength="243.13" waitingTime="3.00" waitingCount="1" stopTime="0.00" timeLoss="18.97" rerouteNo="0" devices="tripinfo_flow_passenger_sn.4" vType="passenger" speedFactor="1.08" vaporized=""/>
    <tripinfo id="flow_passenger_sn.6" depart="18.00" departLane="1053267667#3_1" departPos="0.00" departSpeed="5.98" departDelay="0.00" arrival="45.00" arrivalLane="749988360#2_1" arrivalPos="63.94" arrivalSpeed="19.30" duration="27.00" routeLength="243.13" waitingTime="0.00" waitingCount="0" stopTime="0.00" timeLoss="14.54" rerouteNo="0" devices="tripinfo_flow_passenger_sn.6" vType="passenger" speedFactor="0.97" vaporized=""/>
    <tripinfo id="flow_passenger_sn.7" depart="22.00" departLane="1053267667#3_0" departPos="33.40" departSpeed="4.96" departDelay="1.00" arrival="45.00" arrivalLane="749988360#2_0" arrivalPos="63.94" arrivalSpeed="19.99" duration="23.00" routeLength="209.73" waitingTime="2.00" waitingCount="1" stopTime="0.00" timeLoss="11.82" rerouteNo="0" devices="tripinfo_flow_passenger_sn.7" vType="passenger" speedFactor="1.00" vaporized=""/>
    <tripinfo id="flow_bus_sn.0" depart="0.00" departLane="1053267667#3_1" departPos="7.10" departSpeed="0.00" departDelay="0.00" arrival="47.00" arrivalLane="749988360#2_2" arrivalPos="63.94" arrivalSpeed="15.38" duration="47.00" routeLength="236.03" waitingTime="3.00" waitingCount="3" stopTime="0.00" timeLoss="32.06" rerouteNo="0" devices="tripinfo_flow_bus_sn.0" vType="bus" speedFactor="1.05" vaporized=""/>
    <tripinfo id="flow_passenger_sn.8" depart="24.00" departLane="1053267667#3_1" departPos="0.00" departSpeed="2.50" departDelay="0.00" arrival="47.00" arrivalLane="749988360#2_1" arrivalPos="63.94" arrivalSpeed="19.89" duration="23.00" routeLength="243.13" waitingTime="0.00" waitingCount="0" stopTime="0.00" timeLoss="10.24" rerouteNo="0" devices="tripinfo_flow_passenger_sn.8" vType="passenger" speedFactor="1.00" vaporized=""/>
    <tripinfo id="flow_truck_se.0" depart="0.00" departLane="1053267667#3_1" departPos="21.30" departSpeed="18.00" departDelay="0.00" arrival="48.00" arrivalLane="563175146#1_2" arrivalPos="228.90" arrivalSpeed="17.96" duration="48.00" routeLength="341.39" waitingTime="8.00" waitingCount="3" stopTime="0.00" timeLoss="28.00" rerouteNo="0" devices="tripinfo_flow_truck_se.0" vType="truck" speedFactor="1.02" vaporized=""/>
    <tripinfo id="flow_passenger_sw.2" depart="18.00" departLane="1053267667#3_2" departPos="0.00" departSpeed="0.77" departDelay="0.00" arrival="48.00" arrivalLane="978400303#1_0" arrivalPos="131.20" arrivalSpeed="19.23" duration="30.00" routeLength="277.26" waitingTime="2.00" waitingCount="1" stopTime="0.00" timeLoss="15.69" rerouteNo="0" devices="tripinfo_flow_passenger_sw.2" vType="passenger" speedFactor="0.94" vaporized=""/>
    <tripinfo id="flow_passenger_se.1" depart="8.00" departLane="1053267667#3_2" departPos="42.84" departSpeed="3.02" departDelay="1.00" arrival="50.00" arrivalLane="563175146#1_2" arrivalPos="228.90" arrivalSpeed="19.40" duration="42.00" routeLength="319.85" waitingTime="2.00" waitingCount="1" stopTime="0.00" timeLoss="23.72" rerouteNo="0" devices="tripinfo_flow_passenger_se.1" vType="passenger" speedFactor="0.85" vaporized=""/>
    <tripinfo id="flow_emergency_se.0" depart="0.00" departLane="1053267667#3_0" departPos="0.00" departSpeed="10.64" departDelay="0.00" arrival="51.00" arrivalLane="563175146#1_2" arrivalPos="228.90" arrivalSpeed="23.02" duration="51.00" routeLength="362.69" waitingTime="7.00" waitingCount="3" stopTime="0.00" timeLoss="34.61" rerouteNo="0" devices="tripinfo_flow_emergency_se.0" vType="emergency" speedFactor="0.93" vaporized=""/>
    <tripinfo id="flow_bus_sn.1" depart="20.00" departLane="1053267667#3_0" departPos="0.00" departSpeed="0.00" departDelay="0.00" arrival="51.00" arrivalLane="749988360#2_0" arrivalPos="63.94" arrivalSpeed="15.30" duration="31.00" routeLength="243.13" waitingTime="0.00" waitingCount="0" stopTime="0.00" timeLoss="15.12" rerouteNo="0" devices="tripinfo_flow_bus_sn.1" vType="bus" speedFactor="0.96" vaporized=""/>
    <tripinfo id="flow_passenger_sn.10" depart="31.00" departLane="1053267667#3_1" departPos="10.23" departSpeed="7.36" departDelay="1.00" arrival="52.00" arrivalLane="749988360#2_1" arrivalPos="63.94" arrivalSpeed="19.75" duration="21.00" routeLength="232.90" waitingTime="0.00" waitingCount="0" stopTime="0.00" timeLoss="8.45" rerouteNo="0" devices="tripinfo_flow_passenger_sn.10" vType="passenger" speedFactor="0.89" vaporized=""/>
    <tripinfo id="flow_passenger_sn.5" depart="16.00" departLane="1053267667#3_2" departPos="0.00" departSpeed="3.68" departDelay="1.00" arrival="54.00" arrivalLane="749988360#2_2" arrivalPos="63.94" arrivalSpeed="20.00" duration="38.00" routeLength="243.13" waitingTime="0.00" waitingCount="0" stopTime="0.00" timeLoss="25.23" rerouteNo="0" devices="tripinfo_flow_passenger_sn.5" vType="passenger" speedFactor="0.88" vaporized=""/>
    <tripinfo id="flow_passenger_sn.9" depart="27.00" departLane="1053267667#3_1" departPos="0.00" departSpeed="2.50" departDelay="0.00" arrival="54.00" arrivalLane="749988360#2_1" arrivalPos="63.94" arrivalSpeed="19.58" duration="27.00" routeLength="243.13" waitingTime="1.00" waitingCount="1" stopTime="0.00" timeLoss="14.59" rerouteNo="0" devices="tripinfo_flow_passenger_sn.9" vType="passenger" speedFactor="0.92" vaporized=""/>
    <tripinfo id="flow_passenger_sw.4" depart="36.00" departLane="1053267667#3_1" departPos="63.40" departSpeed="8.06" departDelay="0.00" arrival="54.00" arrivalLane="978400303#1_0" arrivalPos="131.20" arrivalSpeed="19.28" duration="18.00" routeLength="213.86" waitingTime="0.00" waitingCount="0" stopTime="0.00" timeLoss="6.89" rerouteNo="0" devices="tripinfo_flow_passenger_sw.4" vType="passenger" speedFactor="1.07" vaporized=""/>
    <tripinfo id="flow_passenger_sw.3" depart="27.00" departLane="1053267667#3_2" departPos="0.00" departSpeed="5.83" departDelay="0.00" arrival="56.00" arrivalLane="978400303#1_0" arrivalPos="131.20" arrivalSpeed="19.45" duration="29.00" routeLength="277.26" waitingTime="0.00" waitingCount="0" stopTime="0.00" timeLoss="14.97" rerouteNo="0" devices="tripinfo_flow_passenger_sw.3" vType="passenger" speedFactor="1.09" vaporized=""/>
    <tripinfo id="flow_passenger_sn.11" depart="33.00" departLane="1053267667#3_0" departPos="0.00" departSpeed="7.72" departDelay="0.00" arrival="56.00" arrivalLane="749988360#2_0" arrivalPos="63.94" arrivalSpeed="19.74" duration="23.00" routeLength="243.13" waitingTime="0.00" waitingCount="0" stopTime="0.00" timeLoss="10.33" rerouteNo="0" devices="tripinfo_flow_passenger_sn.11" vType="passenger" speedFactor="0.96" vaporized=""/>
    <tripinfo id="flow_passenger_sn.14" depart="43.00" departLane="1053267667#3_1" departPos="44.31" departSpeed="8.59" departDelay="1.00" arrival="56.00" arrivalLane="749988360#2_1" arrivalPos="63.94" arrivalSpeed="18.79" duration="13.00" routeLength="198.82" waitingTime="0.00" waitingCount="0" stopTime="0.00" timeLoss="2.37" rerouteNo="0" devices="tripinfo_flow_passenger_sn.14" vType="passenger" speedFactor="1.04" vaporized=""/>
    <tripinfo id="flow_bus_se.0" depart="0.00" departLane="1053267667#3_1" departPos="0.00" departSpeed="0.00" departDelay="0.00" arrival="57.00" arrivalLane="563175146#1_2" arrivalPos="228.90" arrivalSpeed="15.98" duration="57.00" routeLength="362.69" waitingTime="2.00" waitingCount="2" stopTime="0.00" timeLoss="32.53" rerouteNo="0" devices="tripinfo_flow_bus_se.0" vType="bus" speedFactor="0.83" vaporized=""/>
    <tripinfo id="flow_passenger_sn.12" depart="36.00" departLane="1053267667#3_1" departPos="0.00" departSpeed="2.50" departDelay="0.00" arrival="57.00" arrivalLane="749988360#2_1" arrivalPos="63.94" arrivalSpeed="19.76" duration="21.00" routeLength="243.13" waitingTime="0.00" waitingCount="0" stopTime="0.00" timeLoss="8.85" rerouteNo="0" devices="tripinfo_flow_passenger_sn.12" vType="passenger" speedFactor="0.99" vaporized=""/>
    <tripinfo id="flow_passenger_se.0" depart="1.00" departLane="1053267667#3_2" departPos="0.00" departSpeed="0.15" departDelay="1.00" arrival="58.00" arrivalLane="563175146#1_2" arrivalPos="228.90" arrivalSpeed="18.63" duration="57.00" routeLength="362.69" waitingTime="5.00" waitingCount="3" stopTime="0.00" timeLoss="37.39" rerouteNo="0" devices="tripinfo_flow_passenger_se.0" vType="passenger" speedFactor="0.87" vaporized=""/>
    <tripinfo id="flow_passenger_se.2" depart="14.00" departLane="1053267667#3_0" departPos="0.00" departSpeed="2.77" departDelay="0.00" arrival="60.00" arrivalLane="563175146#1_2" arrivalPos="228.90" arrivalSpeed="19.93" duration="46.00" routeLength="362.69" waitingTime="0.00" waitingCount="0" stopTime="0.00" timeLoss="26.38" rerouteNo="0" devices="tripinfo_flow_passenger_se.2" vType="passenger" speedFactor="1.02" vaporized=""/>
    <tripinfo id="flow_passenger_sn.15" depart="45.00" departLane="1053267667#3_1" departPos="0.00" departSpeed="13.06" departDelay="0.00" arrival="61.00" arrivalLane="749988360#2_1" arrivalPos="63.94" arrivalSpeed="19.86" duration="16.00" routeLength="243.13" waitingTime="0.00" waitingCount="0" stopTime="0.00" timeLoss="2.89" rerouteNo="0" devices="tripinfo_flow_passenger_sn.15" vType="passenger" speedFactor="1.00" vaporized=""/>
    <tripinfo id="flow_passenger_se.4" depart="28.00" departLane="1053267667#3_0" departPos="17.13" departSpeed="8.25" departDelay="0.00" arrival="62.00" arrivalLane="563175146#1_2" arrivalPos="228.90" arrivalSpeed="19.69" duration="34.00" routeLength="345.56" waitingTime="2.00" waitingCount="1" stopTime="0.00" timeLoss="14.97" rerouteNo="0" devices="tripinfo_flow_passenger_se.4" vType="passenger" speedFactor="1.12" vaporized=""/>
    <tripinfo id="flow_passenger_sn.16" depart="48.00" departLane="1053267667#3_1" departPos="0.00" departSpeed="13.23" departDelay="0.00" arrival="62.00" arrivalLane="749988360#2_1" arrivalPos="63.94" arrivalSpeed="18.81" duration="14.00" routeLength="243.13" waitingTime="0.00" waitingCount="0" stopTime="0.00" timeLoss="1.74" rerouteNo="0" devices="tripinfo_flow_passenger_sn.16" vType="passenger" speedFactor="0.73" vaporized=""/>
    <tripinfo id="flow_passenger_se.3" depart="21.00" departLane="1053267667#3_1" departPos="0.00" departSpeed="3.41" departDelay="0.00" arrival="63.00" arrivalLane="563175146#1_2" arrivalPos="228.90" arrivalSpeed="19.76" duration="42.00" routeLength="362.69" waitingTime="0.00" waitingCount="0" stopTime="0.00" timeLoss="22.35" rerouteNo="0" devices="tripinfo_flow_passenger_se.3" vType="passenger" speedFactor="1.03" vaporized=""/>
    <tripinfo id="flow_passenger_se.5" depart="35.00" departLane="1053267667#3_1" departPos="0.00" departSpeed="7.66" departDelay="0.00" arrival="65.00" arrivalLane="563175146#1_2" arrivalPos="228.90" arrivalSpeed="18.76" duration="30.00" routeLength="362.69" waitingTime="0.00" waitingCount="0" stopTime="0.00" timeLoss="10.10" rerouteNo="0" devices="tripinfo_flow_passenger_se.5" vType="passenger" speedFactor="1.01" vaporized=""/>
    <tripinfo id="flow_passenger_sn.13" depart="39.00" departLane="1053267667#3_2" departPos="0.00" departSpeed="7.37" departDelay="0.00" arrival="65.00" arrivalLane="749988360#2_2" arrivalPos="63.94" arrivalSpeed="19.02" duration="26.00" routeLength="243.13" waitingTime="0.00" waitingCount="0" stopTime="0.00" timeLoss="13.67" rerouteNo="0" devices="tripinfo_flow_passenger_sn.13" vType="passenger" speedFactor="1.10" vaporized=""/>
    <tripinfo id="flow_bus_sw.1" depart="40.00" departLane="1053267667#3_1" departPos="0.00" departSpeed="0.00" departDelay="0.00" arrival="65.00" arrivalLane="978400303#1_0" arrivalPos="131.20" arrivalSpeed="14.95" duration="25.00" routeLength="277.26" waitingTime="0.00" waitingCount="0" stopTime="0.00" timeLoss="7.51" rerouteNo="0" devices="tripinfo_flow_bus_sw.1" vType="bus" speedFactor="1.06" vaporized=""/>
    <tripinfo id="flow_passenger_sn.17" depart="51.00" departLane="1053267667#3_1" departPos="0.00" departSpeed="14.51" departDelay="0.00" arrival="66.00" arrivalLane="749988360#2_1" arrivalPos="63.94" arrivalSpeed="19.87" duration="15.00" routeLength="243.13" waitingTime="0.00" waitingCount="0" stopTime="0.00" timeLoss="2.60" rerouteNo="0" devices="tripinfo_flow_passenger_sn.17" vType="passenger" speedFactor="0.93" vaporized=""/>
    <tripinfo id="flow_passenger_se.6" depart="42.00" departLane="1053267667#3_1" departPos="14.02" departSpeed="5.96" departDelay="0.00" arrival="67.00" arrivalLane="563175146#1_2" arrivalPos="228.90" arrivalSpeed="19.45" duration="25.00" routeLength="348.67" waitingTime="0.00" waitingCount="0" stopTime="0.00" timeLoss="5.44" rerouteNo="0" devices="tripinfo_flow_passenger_se.6" vType="passenger" speedFactor="0.96" vaporized=""/>
    <tripinfo id="flow_passenger_sw.5" depart="46.00" departLane="1053267667#3_0" departPos="0.00" departSpeed="7.21" departDelay="1.00" arrival="67.00" arrivalLane="978400303#1_0" arrivalPos="131.20" arrivalSpeed="19.05" duration="21.00" routeLength="277.26" waitingTime="0.00" waitingCount="0" stopTime="0.00" timeLoss="6.34" rerouteNo="0" devices="tripinfo_flow_passenger_sw.5" vType="passenger" speedFactor="0.95" vaporized=""/>
    <tripinfo id="flow_passenger_sn.18" depart="54.00" departLane="1053267667#3_0" departPos="0.00" departSpeed="20.00" departDelay="0.00" arrival="68.00" arrivalLane="749988360#2_0" arrivalPos="63.94" arrivalSpeed="18.91" duration="14.00" routeLength="243.13" waitingTime="0.00" waitingCount="0" stopTime="0.00" timeLoss="1.05" rerouteNo="0" devices="tripinfo_flow_passenger_sn.18" vType="passenger" speedFactor="1.08" vaporized=""/>
    <tripinfo id="flow_passenger_sw.6" depart="54.00" departLane="1053267667#3_0" departPos="62.10" departSpeed="15.80" departDelay="0.00" arrival="68.00" arrivalLane="978400303#1_0" arrivalPos="131.20" arrivalSpeed="18.40" duration="14.00" routeLength="215.16" waitingTime="0.00" waitingCount="0" stopTime="0.00" timeLoss="2.82" rerouteNo="0" devices="tripinfo_flow_passenger_sw.6" vType="passenger" speedFactor="0.91" vaporized=""/>
    <tripinfo id="flow_passenger_sn.19" depart="57.00" departLane="1053267667#3_0" departPos="0.00" departSpeed="19.97" departDelay="0.00" arrival="70.00" arrivalLane="749988360#2_0" arrivalPos="63.94" arrivalSpeed="19.04" duration="13.00" routeLength="243.13" waitingTime="0.00" waitingCount="0" stopTime="0.00" timeLoss="0.65" rerouteNo="0" devices="tripinfo_flow_passenger_sn.19" vType="passenger" speedFactor="1.03" vaporized=""/>
    <tripinfo id="flow_bus_sn.2" depart="40.00" departLane="1053267667#3_2" departPos="0.00" departSpeed="0.00" departDelay="0.00" arrival="71.00" arrivalLane="749988360#2_2" arrivalPos="63.94" arrivalSpeed="15.50" duration="31.00" routeLength="243.13" waitingTime="0.00" waitingCount="0" stopTime="0.00" timeLoss="15.28" rerouteNo="0" devices="tripinfo_flow_bus_sn.2" vType="bus" speedFactor="1.02" vaporized=""/>
    <tripinfo id="flow_bus_se.1" depart="30.00" departLane="1053267667#3_0" departPos="0.00" departSpeed="0.00" departDelay="0.00" arrival="73.00" arrivalLane="563175146#1_2" arrivalPos="228.90" arrivalSpeed="15.25" duration="43.00" routeLength="362.69" waitingTime="1.00" waitingCount="1" stopTime="0.00" timeLoss="19.49" rerouteNo="0" devices="tripinfo_flow_bus_se.1" vType="bus" speedFactor="1.06" vaporized=""/>
    <tripinfo id="flow_passenger_sn.20" depart="60.00" departLane="1053267667#3_1" departPos="0.00" departSpeed="20.00" departDelay="0.00" arrival="73.00" arrivalLane="749988360#2_1" arrivalPos="63.94" arrivalSpeed="19.04" duration="13.00" routeLength="243.13" waitingTime="0.00" waitingCount="0" stopTime="0.00" timeLoss="0.41" rerouteNo="0" devices="tripinfo_flow_passenger_sn.20" vType="passenger" speedFactor="1.09" vaporized=""/>
    <tripinfo id="flow_passenger_se.7" depart="49.00" departLane="1053267667#3_0" departPos="0.00" departSpeed="10.13" departDelay="0.00" arrival="74.00" arrivalLane="563175146#1_2" arrivalPos="228.90" arrivalSpeed="18.17" duration="25.00" routeLength="362.69" waitingTime="0.00" waitingCount="0" stopTime="0.00" timeLoss="5.75" rerouteNo="0" devices="tripinfo_flow_passenger_se.7" vType="passenger" speedFactor="1.00" vaporized=""/>
    <tripinfo id="flow_passenger_sn.21" depart="63.00" departLane="1053267667#3_1" departPos="0.00" departSpeed="19.60" departDelay="0.00" arrival="77.00" arrivalLane="749988360#2_1" arrivalPos="63.94" arrivalSpeed="19.35" duration="14.00" routeLength="243.13" waitingTime="0.00" waitingCount="0" stopTime="0.00" timeLoss="1.07" rerouteNo="0" devices="tripinfo_flow_passenger_sn.21" vType="passenger" speedFactor="1.03" vaporized=""/>
    <tripinfo id="flow_passenger_sw.7" depart="63.00" departLane="1053267667#3_0" departPos="25.62" departSpeed="20.00" departDelay="0.00" arrival="77.00" arrivalLane="978400303#1_0" arrivalPos="131.20" arrivalSpeed="18.82" duration="14.00" routeLength="251.64" waitingTime="0.00" waitingCount="0" stopTime="0.00" timeLoss="0.50" rerouteNo="0" devices="tripinfo_flow_passenger_sw.7" vType="passenger" speedFactor="1.03" vaporized=""/>
    <tripinfo id="flow_passenger_se.8" depart="56.00" departLane="1053267667#3_1" departPos="0.00" departSpeed="17.30" departDelay="0.00" arrival="78.00" arrivalLane="563175146#1_2" arrivalPos="228.90" arrivalSpeed="19.72" duration="22.00" routeLength="362.69" waitingTime="0.00" waitingCount="0" stopTime="0.00" timeLoss="2.43" rerouteNo="0" devices="tripinfo_flow_passenger_se.8" vType="passenger" speedFactor="1.05" vaporized=""/>
    <tripinfo id="flow_bus_sn.3" depart="60.00" departLane="1053267667#3_0" departPos="7.10" departSpeed="0.00" departDelay="0.00" arrival="81.00" arrivalLane="749988360#2_0" arrivalPos="63.94" arrivalSpeed="15.81" duration="21.00" routeLength="236.03" waitingTime="0.00" waitingCount="0" stopTime="0.00" timeLoss="5.90" rerouteNo="0" devices="tripinfo_flow_bus_sn.3" vType="bus" speedFactor="0.90" vaporized=""/>
    <tripinfo id="flow_passenger_se.9" depart="63.00" departLane="1053267667#3_2" departPos="13.85" departSpeed="20.00" departDelay="0.00" arrival="83.00" arrivalLane="563175146#1_2" arrivalPos="228.90" arrivalSpeed="19.40" duration="20.00" routeLength="348.84" waitingTime="0.00" waitingCount="0" stopTime="0.00" timeLoss="1.21" rerouteNo="0" devices="tripinfo_flow_passenger_se.9" vType="passenger" speedFactor="1.10" vaporized=""/>